<?xml version="1.0" encoding="UTF-8"?>

<!-- generated on 2025-01-02 17:37:29 by Eclipse SUMO GUI Version v1_21_0+1300-66ed36aff3d
<sumoConfiguration xmlns:xsi="http://www.w3.org/2001/XMLSchema-instance" xsi:noNamespaceSchemaLocation="http://sumo.dlr.de/xsd/sumoConfiguration.xsd">

    <input>
        <net-file value="Simulation Files/simple_network.net.xml"/>
        <route-files value="Simulation Files/randomRoutes.rou.xml"/>
        <additional-files value="Simulation Files/additional.add.xml"/>
    </input>

    <output>
        <summary-output value="Simulation Files/output.sumocfg"/>
    </output>

    <time>
        <begin value="0"/>
        <end value="100"/>
    </time>

    <traci_server>
        <remote-port value="35855"/>
    </traci_server>

</sumoConfiguration>
-->

<summary xmlns:xsi="http://www.w3.org/2001/XMLSchema-instance" xsi:noNamespaceSchemaLocation="http://sumo.dlr.de/xsd/summary_file.xsd">
    <step time="0.00" loaded="2" inserted="1" running="1" waiting="0" ended="0" arrived="0" collisions="0" teleports="0" halting="1" stopped="0" meanWaitingTime="0.00" meanTravelTime="-1.00" meanSpeed="0.00" meanSpeedRelative="0.00" duration="0"/>
    <step time="1.00" loaded="2" inserted="1" running="1" waiting="0" ended="0" arrived="0" collisions="0" teleports="0" halting="0" stopped="0" meanWaitingTime="0.00" meanTravelTime="-1.00" meanSpeed="1.71" meanSpeedRelative="0.12" duration="0"/>
    <step time="2.00" loaded="103" inserted="2" running="2" waiting="0" ended="0" arrived="0" collisions="0" teleports="0" halting="1" stopped="0" meanWaitingTime="0.00" meanTravelTime="-1.00" meanSpeed="2.12" meanSpeedRelative="0.15" duration="2"/>
    <step time="3.00" loaded="103" inserted="2" running="2" waiting="0" ended="0" arrived="0" collisions="0" teleports="0" halting="0" stopped="0" meanWaitingTime="0.00" meanTravelTime="-1.00" meanSpeed="3.78" meanSpeedRelative="0.27" duration="0"/>
    <step time="4.00" loaded="103" inserted="3" running="3" waiting="0" ended="0" arrived="0" collisions="0" teleports="0" halting="1" stopped="0" meanWaitingTime="0.00" meanTravelTime="-1.00" meanSpeed="3.51" meanSpeedRelative="0.25" duration="0"/>
    <step time="5.00" loaded="103" inserted="3" running="3" waiting="0" ended="0" arrived="0" collisions="0" teleports="0" halting="0" stopped="0" meanWaitingTime="0.00" meanTravelTime="-1.00" meanSpeed="4.53" meanSpeedRelative="0.33" duration="0"/>
    <step time="6.00" loaded="103" inserted="4" running="4" waiting="0" ended="0" arrived="0" collisions="0" teleports="0" halting="1" stopped="0" meanWaitingTime="0.00" meanTravelTime="-1.00" meanSpeed="3.49" meanSpeedRelative="0.25" duration="0"/>
    <step time="7.00" loaded="103" inserted="4" running="4" waiting="0" ended="0" arrived="0" collisions="0" teleports="0" halting="0" stopped="0" meanWaitingTime="0.00" meanTravelTime="-1.00" meanSpeed="4.79" meanSpeedRelative="0.35" duration="0"/>
    <step time="8.00" loaded="103" inserted="5" running="5" waiting="0" ended="0" arrived="0" collisions="0" teleports="0" halting="1" stopped="0" meanWaitingTime="0.00" meanTravelTime="-1.00" meanSpeed="3.65" meanSpeedRelative="0.26" duration="0"/>
    <step time="9.00" loaded="103" inserted="5" running="5" waiting="0" ended="0" arrived="0" collisions="0" teleports="0" halting="0" stopped="0" meanWaitingTime="0.00" meanTravelTime="-1.00" meanSpeed="3.03" meanSpeedRelative="0.22" duration="0"/>
    <step time="10.00" loaded="103" inserted="6" running="6" waiting="0" ended="0" arrived="0" collisions="0" teleports="0" halting="3" stopped="0" meanWaitingTime="0.00" meanTravelTime="-1.00" meanSpeed="3.15" meanSpeedRelative="0.23" duration="0"/>
    <step time="11.00" loaded="103" inserted="6" running="6" waiting="0" ended="0" arrived="0" collisions="0" teleports="0" halting="2" stopped="0" meanWaitingTime="0.00" meanTravelTime="-1.00" meanSpeed="3.84" meanSpeedRelative="0.28" duration="0"/>
    <step time="12.00" loaded="103" inserted="7" running="7" waiting="0" ended="0" arrived="0" collisions="0" teleports="0" halting="3" stopped="0" meanWaitingTime="0.00" meanTravelTime="-1.00" meanSpeed="3.53" meanSpeedRelative="0.25" duration="0"/>
    <step time="13.00" loaded="103" inserted="7" running="7" waiting="0" ended="0" arrived="0" collisions="0" teleports="0" halting="2" stopped="0" meanWaitingTime="0.00" meanTravelTime="-1.00" meanSpeed="4.85" meanSpeedRelative="0.35" duration="0"/>
    <step time="14.00" loaded="103" inserted="8" running="8" waiting="0" ended="0" arrived="0" collisions="0" teleports="0" halting="3" stopped="0" meanWaitingTime="0.00" meanTravelTime="-1.00" meanSpeed="4.30" meanSpeedRelative="0.31" duration="0"/>
    <step time="15.00" loaded="103" inserted="8" running="8" waiting="0" ended="0" arrived="0" collisions="0" teleports="0" halting="2" stopped="0" meanWaitingTime="0.00" meanTravelTime="-1.00" meanSpeed="4.55" meanSpeedRelative="0.33" duration="1"/>
    <step time="16.00" loaded="103" inserted="9" running="9" waiting="0" ended="0" arrived="0" collisions="0" teleports="0" halting="3" stopped="0" meanWaitingTime="0.00" meanTravelTime="-1.00" meanSpeed="4.15" meanSpeedRelative="0.30" duration="0"/>
    <step time="17.00" loaded="103" inserted="9" running="9" waiting="0" ended="0" arrived="0" collisions="0" teleports="0" halting="2" stopped="0" meanWaitingTime="0.00" meanTravelTime="-1.00" meanSpeed="4.54" meanSpeedRelative="0.33" duration="0"/>
    <step time="18.00" loaded="103" inserted="10" running="10" waiting="0" ended="0" arrived="0" collisions="0" teleports="0" halting="4" stopped="0" meanWaitingTime="0.00" meanTravelTime="-1.00" meanSpeed="4.23" meanSpeedRelative="0.30" duration="0"/>
    <step time="19.00" loaded="103" inserted="10" running="10" waiting="0" ended="0" arrived="0" collisions="0" teleports="0" halting="3" stopped="0" meanWaitingTime="0.00" meanTravelTime="-1.00" meanSpeed="4.51" meanSpeedRelative="0.32" duration="0"/>
    <step time="20.00" loaded="103" inserted="10" running="10" waiting="1" ended="0" arrived="0" collisions="0" teleports="0" halting="3" stopped="0" meanWaitingTime="0.00" meanTravelTime="-1.00" meanSpeed="4.49" meanSpeedRelative="0.32" duration="0"/>
    <step time="21.00" loaded="103" inserted="11" running="11" waiting="0" ended="0" arrived="0" collisions="0" teleports="0" halting="4" stopped="0" meanWaitingTime="0.09" meanTravelTime="-1.00" meanSpeed="4.34" meanSpeedRelative="0.31" duration="0"/>
    <step time="22.00" loaded="103" inserted="11" running="11" waiting="1" ended="0" arrived="0" collisions="0" teleports="0" halting="4" stopped="0" meanWaitingTime="0.09" meanTravelTime="-1.00" meanSpeed="4.47" meanSpeedRelative="0.32" duration="0"/>
    <step time="23.00" loaded="103" inserted="12" running="12" waiting="0" ended="0" arrived="0" collisions="0" teleports="0" halting="5" stopped="0" meanWaitingTime="0.17" meanTravelTime="-1.00" meanSpeed="3.67" meanSpeedRelative="0.26" duration="0"/>
    <step time="24.00" loaded="103" inserted="13" running="13" waiting="0" ended="0" arrived="0" collisions="0" teleports="0" halting="5" stopped="0" meanWaitingTime="0.15" meanTravelTime="-1.00" meanSpeed="3.76" meanSpeedRelative="0.27" duration="0"/>
    <step time="25.00" loaded="103" inserted="13" running="13" waiting="0" ended="0" arrived="0" collisions="0" teleports="0" halting="5" stopped="0" meanWaitingTime="0.15" meanTravelTime="-1.00" meanSpeed="4.58" meanSpeedRelative="0.33" duration="0"/>
    <step time="26.00" loaded="103" inserted="13" running="13" waiting="1" ended="0" arrived="0" collisions="0" teleports="0" halting="5" stopped="0" meanWaitingTime="0.15" meanTravelTime="-1.00" meanSpeed="4.91" meanSpeedRelative="0.35" duration="0"/>
    <step time="27.00" loaded="103" inserted="13" running="13" waiting="1" ended="0" arrived="0" collisions="0" teleports="0" halting="5" stopped="0" meanWaitingTime="0.15" meanTravelTime="-1.00" meanSpeed="4.77" meanSpeedRelative="0.34" duration="0"/>
    <step time="28.00" loaded="103" inserted="14" running="14" waiting="1" ended="0" arrived="0" collisions="0" teleports="0" halting="6" stopped="0" meanWaitingTime="0.14" meanTravelTime="-1.00" meanSpeed="3.78" meanSpeedRelative="0.27" duration="0"/>
    <step time="29.00" loaded="103" inserted="14" running="14" waiting="1" ended="0" arrived="0" collisions="0" teleports="0" halting="5" stopped="0" meanWaitingTime="0.14" meanTravelTime="-1.00" meanSpeed="3.63" meanSpeedRelative="0.26" duration="0"/>
    <step time="30.00" loaded="103" inserted="15" running="15" waiting="1" ended="0" arrived="0" collisions="0" teleports="0" halting="7" stopped="0" meanWaitingTime="0.13" meanTravelTime="-1.00" meanSpeed="3.49" meanSpeedRelative="0.25" duration="0"/>
    <step time="31.00" loaded="103" inserted="15" running="15" waiting="1" ended="0" arrived="0" collisions="0" teleports="0" halting="7" stopped="0" meanWaitingTime="0.13" meanTravelTime="-1.00" meanSpeed="3.80" meanSpeedRelative="0.27" duration="0"/>
    <step time="32.00" loaded="103" inserted="17" running="17" waiting="0" ended="0" arrived="0" collisions="0" teleports="0" halting="9" stopped="0" meanWaitingTime="0.47" meanTravelTime="-1.00" meanSpeed="3.41" meanSpeedRelative="0.25" duration="0"/>
    <step time="33.00" loaded="103" inserted="17" running="17" waiting="0" ended="0" arrived="0" collisions="0" teleports="0" halting="7" stopped="0" meanWaitingTime="0.47" meanTravelTime="-1.00" meanSpeed="3.72" meanSpeedRelative="0.27" duration="0"/>
    <step time="34.00" loaded="103" inserted="18" running="18" waiting="0" ended="0" arrived="0" collisions="0" teleports="0" halting="8" stopped="0" meanWaitingTime="0.44" meanTravelTime="-1.00" meanSpeed="3.30" meanSpeedRelative="0.24" duration="0"/>
    <step time="35.00" loaded="103" inserted="18" running="18" waiting="0" ended="0" arrived="0" collisions="0" teleports="0" halting="8" stopped="0" meanWaitingTime="0.44" meanTravelTime="-1.00" meanSpeed="3.79" meanSpeedRelative="0.27" duration="0"/>
    <step time="36.00" loaded="103" inserted="19" running="19" waiting="0" ended="0" arrived="0" collisions="0" teleports="0" halting="10" stopped="0" meanWaitingTime="0.42" meanTravelTime="-1.00" meanSpeed="4.18" meanSpeedRelative="0.30" duration="0"/>
    <step time="37.00" loaded="103" inserted="19" running="18" waiting="0" ended="1" arrived="1" collisions="0" teleports="0" halting="9" stopped="0" meanWaitingTime="0.42" meanTravelTime="5.00" meanSpeed="3.93" meanSpeedRelative="0.28" duration="0"/>
    <step time="38.00" loaded="103" inserted="20" running="19" waiting="0" ended="1" arrived="1" collisions="0" teleports="0" halting="10" stopped="0" meanWaitingTime="0.40" meanTravelTime="5.00" meanSpeed="3.41" meanSpeedRelative="0.25" duration="0"/>
    <step time="39.00" loaded="103" inserted="20" running="19" waiting="0" ended="1" arrived="1" collisions="0" teleports="0" halting="9" stopped="0" meanWaitingTime="0.40" meanTravelTime="5.00" meanSpeed="3.09" meanSpeedRelative="0.22" duration="1"/>
    <step time="40.00" loaded="103" inserted="21" running="19" waiting="0" ended="2" arrived="2" collisions="0" teleports="0" halting="13" stopped="0" meanWaitingTime="0.38" meanTravelTime="13.50" meanSpeed="1.92" meanSpeedRelative="0.14" duration="0"/>
    <step time="41.00" loaded="103" inserted="21" running="19" waiting="0" ended="2" arrived="2" collisions="0" teleports="0" halting="11" stopped="0" meanWaitingTime="0.38" meanTravelTime="13.50" meanSpeed="2.20" meanSpeedRelative="0.16" duration="0"/>
    <step time="42.00" loaded="103" inserted="22" running="20" waiting="0" ended="2" arrived="2" collisions="0" teleports="0" halting="12" stopped="0" meanWaitingTime="0.36" meanTravelTime="13.50" meanSpeed="1.92" meanSpeedRelative="0.14" duration="0"/>
    <step time="43.00" loaded="103" inserted="22" running="20" waiting="0" ended="2" arrived="2" collisions="0" teleports="0" halting="12" stopped="0" meanWaitingTime="0.36" meanTravelTime="13.50" meanSpeed="1.91" meanSpeedRelative="0.14" duration="0"/>
    <step time="44.00" loaded="103" inserted="23" running="21" waiting="0" ended="2" arrived="2" collisions="0" teleports="0" halting="14" stopped="0" meanWaitingTime="0.35" meanTravelTime="13.50" meanSpeed="1.72" meanSpeedRelative="0.12" duration="0"/>
    <step time="45.00" loaded="103" inserted="23" running="21" waiting="0" ended="2" arrived="2" collisions="0" teleports="0" halting="5" stopped="0" meanWaitingTime="0.35" meanTravelTime="13.50" meanSpeed="2.45" meanSpeedRelative="0.18" duration="0"/>
    <step time="46.00" loaded="103" inserted="23" running="21" waiting="1" ended="2" arrived="2" collisions="0" teleports="0" halting="2" stopped="0" meanWaitingTime="0.35" meanTravelTime="13.50" meanSpeed="3.53" meanSpeedRelative="0.25" duration="0"/>
    <step time="47.00" loaded="103" inserted="23" running="21" waiting="1" ended="2" arrived="2" collisions="0" teleports="0" halting="1" stopped="0" meanWaitingTime="0.35" meanTravelTime="13.50" meanSpeed="4.48" meanSpeedRelative="0.32" duration="0"/>
    <step time="48.00" loaded="103" inserted="24" running="21" waiting="1" ended="3" arrived="3" collisions="0" teleports="0" halting="2" stopped="0" meanWaitingTime="0.33" meanTravelTime="19.67" meanSpeed="5.42" meanSpeedRelative="0.39" duration="0"/>
    <step time="49.00" loaded="103" inserted="25" running="22" waiting="0" ended="3" arrived="3" collisions="0" teleports="0" halting="2" stopped="0" meanWaitingTime="0.44" meanTravelTime="19.67" meanSpeed="6.81" meanSpeedRelative="0.49" duration="0"/>
    <step time="50.00" loaded="103" inserted="26" running="23" waiting="0" ended="3" arrived="3" collisions="0" teleports="0" halting="2" stopped="0" meanWaitingTime="0.42" meanTravelTime="19.67" meanSpeed="7.41" meanSpeedRelative="0.53" duration="0"/>
    <step time="51.00" loaded="103" inserted="26" running="22" waiting="0" ended="4" arrived="4" collisions="0" teleports="0" halting="1" stopped="0" meanWaitingTime="0.42" meanTravelTime="20.50" meanSpeed="7.41" meanSpeedRelative="0.53" duration="0"/>
    <step time="52.00" loaded="103" inserted="27" running="22" waiting="0" ended="5" arrived="5" collisions="0" teleports="0" halting="2" stopped="0" meanWaitingTime="0.41" meanTravelTime="24.80" meanSpeed="6.38" meanSpeedRelative="0.46" duration="0"/>
    <step time="53.00" loaded="103" inserted="27" running="22" waiting="0" ended="5" arrived="5" collisions="0" teleports="0" halting="1" stopped="0" meanWaitingTime="0.41" meanTravelTime="24.80" meanSpeed="5.85" meanSpeedRelative="0.42" duration="1"/>
    <step time="54.00" loaded="103" inserted="28" running="22" waiting="0" ended="6" arrived="6" collisions="0" teleports="0" halting="5" stopped="0" meanWaitingTime="0.39" meanTravelTime="26.17" meanSpeed="4.27" meanSpeedRelative="0.31" duration="0"/>
    <step time="55.00" loaded="103" inserted="28" running="22" waiting="0" ended="6" arrived="6" collisions="0" teleports="0" halting="7" stopped="0" meanWaitingTime="0.39" meanTravelTime="26.17" meanSpeed="3.75" meanSpeedRelative="0.27" duration="0"/>
    <step time="56.00" loaded="103" inserted="29" running="23" waiting="0" ended="6" arrived="6" collisions="0" teleports="0" halting="8" stopped="0" meanWaitingTime="0.38" meanTravelTime="26.17" meanSpeed="3.79" meanSpeedRelative="0.27" duration="0"/>
    <step time="57.00" loaded="103" inserted="29" running="23" waiting="0" ended="6" arrived="6" collisions="0" teleports="0" halting="9" stopped="0" meanWaitingTime="0.38" meanTravelTime="26.17" meanSpeed="4.22" meanSpeedRelative="0.30" duration="0"/>
    <step time="58.00" loaded="103" inserted="30" running="24" waiting="0" ended="6" arrived="6" collisions="0" teleports="0" halting="10" stopped="0" meanWaitingTime="0.37" meanTravelTime="26.17" meanSpeed="4.41" meanSpeedRelative="0.32" duration="0"/>
    <step time="59.00" loaded="103" inserted="30" running="23" waiting="0" ended="7" arrived="7" collisions="0" teleports="0" halting="9" stopped="0" meanWaitingTime="0.37" meanTravelTime="27.43" meanSpeed="3.56" meanSpeedRelative="0.26" duration="0"/>
    <step time="60.00" loaded="103" inserted="31" running="24" waiting="0" ended="7" arrived="7" collisions="0" teleports="0" halting="11" stopped="0" meanWaitingTime="0.35" meanTravelTime="27.43" meanSpeed="2.64" meanSpeedRelative="0.19" duration="0"/>
    <step time="61.00" loaded="103" inserted="31" running="24" waiting="0" ended="7" arrived="7" collisions="0" teleports="0" halting="11" stopped="0" meanWaitingTime="0.35" meanTravelTime="27.43" meanSpeed="2.10" meanSpeedRelative="0.15" duration="0"/>
    <step time="62.00" loaded="103" inserted="32" running="25" waiting="0" ended="7" arrived="7" collisions="0" teleports="0" halting="15" stopped="0" meanWaitingTime="0.34" meanTravelTime="27.43" meanSpeed="1.44" meanSpeedRelative="0.10" duration="0"/>
    <step time="63.00" loaded="103" inserted="32" running="25" waiting="0" ended="7" arrived="7" collisions="0" teleports="0" halting="16" stopped="0" meanWaitingTime="0.34" meanTravelTime="27.43" meanSpeed="1.41" meanSpeedRelative="0.10" duration="0"/>
    <step time="64.00" loaded="103" inserted="33" running="26" waiting="0" ended="7" arrived="7" collisions="0" teleports="0" halting="19" stopped="0" meanWaitingTime="0.33" meanTravelTime="27.43" meanSpeed="1.29" meanSpeedRelative="0.09" duration="0"/>
    <step time="65.00" loaded="103" inserted="33" running="26" waiting="0" ended="7" arrived="7" collisions="0" teleports="0" halting="20" stopped="0" meanWaitingTime="0.33" meanTravelTime="27.43" meanSpeed="1.40" meanSpeedRelative="0.10" duration="0"/>
    <step time="66.00" loaded="103" inserted="34" running="27" waiting="0" ended="7" arrived="7" collisions="0" teleports="0" halting="21" stopped="0" meanWaitingTime="0.32" meanTravelTime="27.43" meanSpeed="1.39" meanSpeedRelative="0.10" duration="0"/>
    <step time="67.00" loaded="103" inserted="34" running="27" waiting="0" ended="7" arrived="7" collisions="0" teleports="0" halting="20" stopped="0" meanWaitingTime="0.32" meanTravelTime="27.43" meanSpeed="1.48" meanSpeedRelative="0.11" duration="0"/>
    <step time="68.00" loaded="103" inserted="35" running="28" waiting="0" ended="7" arrived="7" collisions="0" teleports="0" halting="21" stopped="0" meanWaitingTime="0.31" meanTravelTime="27.43" meanSpeed="1.54" meanSpeedRelative="0.11" duration="0"/>
    <step time="69.00" loaded="103" inserted="35" running="28" waiting="0" ended="7" arrived="7" collisions="0" teleports="0" halting="20" stopped="0" meanWaitingTime="0.31" meanTravelTime="27.43" meanSpeed="1.56" meanSpeedRelative="0.11" duration="0"/>
    <step time="70.00" loaded="103" inserted="36" running="28" waiting="0" ended="8" arrived="8" collisions="0" teleports="0" halting="22" stopped="0" meanWaitingTime="0.31" meanTravelTime="31.25" meanSpeed="1.29" meanSpeedRelative="0.09" duration="0"/>
    <step time="71.00" loaded="103" inserted="36" running="28" waiting="0" ended="8" arrived="8" collisions="0" teleports="0" halting="21" stopped="0" meanWaitingTime="0.31" meanTravelTime="31.25" meanSpeed="1.48" meanSpeedRelative="0.11" duration="0"/>
    <step time="72.00" loaded="103" inserted="37" running="28" waiting="0" ended="9" arrived="9" collisions="0" teleports="0" halting="23" stopped="0" meanWaitingTime="0.30" meanTravelTime="32.22" meanSpeed="1.08" meanSpeedRelative="0.08" duration="0"/>
    <step time="73.00" loaded="103" inserted="37" running="28" waiting="0" ended="9" arrived="9" collisions="0" teleports="0" halting="22" stopped="0" meanWaitingTime="0.30" meanTravelTime="32.22" meanSpeed="0.91" meanSpeedRelative="0.07" duration="0"/>
    <step time="74.00" loaded="103" inserted="38" running="29" waiting="0" ended="9" arrived="9" collisions="0" teleports="0" halting="23" stopped="0" meanWaitingTime="0.29" meanTravelTime="32.22" meanSpeed="0.84" meanSpeedRelative="0.06" duration="0"/>
    <step time="75.00" loaded="103" inserted="38" running="29" waiting="0" ended="9" arrived="9" collisions="0" teleports="0" halting="23" stopped="0" meanWaitingTime="0.29" meanTravelTime="32.22" meanSpeed="0.99" meanSpeedRelative="0.07" duration="0"/>
    <step time="76.00" loaded="103" inserted="39" running="30" waiting="0" ended="9" arrived="9" collisions="0" teleports="0" halting="24" stopped="0" meanWaitingTime="0.28" meanTravelTime="32.22" meanSpeed="1.05" meanSpeedRelative="0.08" duration="0"/>
    <step time="77.00" loaded="103" inserted="39" running="30" waiting="0" ended="9" arrived="9" collisions="0" teleports="0" halting="24" stopped="0" meanWaitingTime="0.28" meanTravelTime="32.22" meanSpeed="0.86" meanSpeedRelative="0.06" duration="0"/>
    <step time="78.00" loaded="103" inserted="40" running="31" waiting="0" ended="9" arrived="9" collisions="0" teleports="0" halting="26" stopped="0" meanWaitingTime="0.28" meanTravelTime="32.22" meanSpeed="0.83" meanSpeedRelative="0.06" duration="0"/>
    <step time="79.00" loaded="103" inserted="40" running="31" waiting="0" ended="9" arrived="9" collisions="0" teleports="0" halting="25" stopped="0" meanWaitingTime="0.28" meanTravelTime="32.22" meanSpeed="0.80" meanSpeedRelative="0.06" duration="1"/>
    <step time="80.00" loaded="103" inserted="41" running="32" waiting="0" ended="9" arrived="9" collisions="0" teleports="0" halting="26" stopped="0" meanWaitingTime="0.27" meanTravelTime="32.22" meanSpeed="0.86" meanSpeedRelative="0.06" duration="0"/>
    <step time="81.00" loaded="103" inserted="41" running="32" waiting="0" ended="9" arrived="9" collisions="0" teleports="0" halting="26" stopped="0" meanWaitingTime="0.27" meanTravelTime="32.22" meanSpeed="0.86" meanSpeedRelative="0.06" duration="0"/>
    <step time="82.00" loaded="103" inserted="42" running="33" waiting="0" ended="9" arrived="9" collisions="0" teleports="0" halting="29" stopped="0" meanWaitingTime="0.26" meanTravelTime="32.22" meanSpeed="0.74" meanSpeedRelative="0.05" duration="0"/>
    <step time="83.00" loaded="103" inserted="42" running="33" waiting="0" ended="9" arrived="9" collisions="0" teleports="0" halting="28" stopped="0" meanWaitingTime="0.26" meanTravelTime="32.22" meanSpeed="0.72" meanSpeedRelative="0.05" duration="0"/>
    <step time="84.00" loaded="103" inserted="43" running="34" waiting="0" ended="9" arrived="9" collisions="0" teleports="0" halting="31" stopped="0" meanWaitingTime="0.26" meanTravelTime="32.22" meanSpeed="0.58" meanSpeedRelative="0.04" duration="0"/>
    <step time="85.00" loaded="103" inserted="43" running="34" waiting="0" ended="9" arrived="9" collisions="0" teleports="0" halting="30" stopped="0" meanWaitingTime="0.26" meanTravelTime="32.22" meanSpeed="0.62" meanSpeedRelative="0.04" duration="0"/>
    <step time="86.00" loaded="103" inserted="44" running="35" waiting="0" ended="9" arrived="9" collisions="0" teleports="0" halting="31" stopped="0" meanWaitingTime="0.25" meanTravelTime="32.22" meanSpeed="0.55" meanSpeedRelative="0.04" duration="0"/>
    <step time="87.00" loaded="103" inserted="44" running="35" waiting="0" ended="9" arrived="9" collisions="0" teleports="0" halting="31" stopped="0" meanWaitingTime="0.25" meanTravelTime="32.22" meanSpeed="0.57" meanSpeedRelative="0.04" duration="0"/>
    <step time="88.00" loaded="103" inserted="45" running="36" waiting="0" ended="9" arrived="9" collisions="0" teleports="0" halting="32" stopped="0" meanWaitingTime="0.24" meanTravelTime="32.22" meanSpeed="0.59" meanSpeedRelative="0.04" duration="0"/>
    <step time="89.00" loaded="103" inserted="45" running="36" waiting="0" ended="9" arrived="9" collisions="0" teleports="0" halting="31" stopped="0" meanWaitingTime="0.24" meanTravelTime="32.22" meanSpeed="0.62" meanSpeedRelative="0.04" duration="0"/>
    <step time="90.00" loaded="103" inserted="46" running="37" waiting="0" ended="9" arrived="9" collisions="0" teleports="0" halting="18" stopped="0" meanWaitingTime="0.24" meanTravelTime="32.22" meanSpeed="1.36" meanSpeedRelative="0.10" duration="0"/>
    <step time="91.00" loaded="103" inserted="46" running="37" waiting="0" ended="9" arrived="9" collisions="0" teleports="0" halting="6" stopped="0" meanWaitingTime="0.24" meanTravelTime="32.22" meanSpeed="2.19" meanSpeedRelative="0.16" duration="1"/>
    <step time="92.00" loaded="103" inserted="47" running="38" waiting="0" ended="9" arrived="9" collisions="0" teleports="0" halting="8" stopped="0" meanWaitingTime="0.23" meanTravelTime="32.22" meanSpeed="3.02" meanSpeedRelative="0.22" duration="0"/>
    <step time="93.00" loaded="103" inserted="47" running="35" waiting="0" ended="12" arrived="12" collisions="0" teleports="0" halting="6" stopped="0" meanWaitingTime="0.23" meanTravelTime="39.83" meanSpeed="3.94" meanSpeedRelative="0.28" duration="0"/>
    <step time="94.00" loaded="103" inserted="47" running="35" waiting="1" ended="12" arrived="12" collisions="0" teleports="0" halting="5" stopped="0" meanWaitingTime="0.23" meanTravelTime="39.83" meanSpeed="5.04" meanSpeedRelative="0.36" duration="0"/>
    <step time="95.00" loaded="103" inserted="47" running="35" waiting="1" ended="12" arrived="12" collisions="0" teleports="0" halting="5" stopped="0" meanWaitingTime="0.23" meanTravelTime="39.83" meanSpeed="5.67" meanSpeedRelative="0.41" duration="0"/>
    <step time="96.00" loaded="103" inserted="49" running="36" waiting="0" ended="13" arrived="13" collisions="0" teleports="0" halting="8" stopped="0" meanWaitingTime="0.27" meanTravelTime="43.85" meanSpeed="5.20" meanSpeedRelative="0.37" duration="0"/>
    <step time="97.00" loaded="103" inserted="49" running="36" waiting="0" ended="13" arrived="13" collisions="0" teleports="0" halting="6" stopped="0" meanWaitingTime="0.27" meanTravelTime="43.85" meanSpeed="5.08" meanSpeedRelative="0.37" duration="0"/>
    <step time="98.00" loaded="103" inserted="50" running="36" waiting="0" ended="14" arrived="14" collisions="0" teleports="0" halting="8" stopped="0" meanWaitingTime="0.26" meanTravelTime="46.71" meanSpeed="4.72" meanSpeedRelative="0.34" duration="0"/>
    <step time="99.00" loaded="103" inserted="50" running="36" waiting="0" ended="14" arrived="14" collisions="0" teleports="0" halting="8" stopped="0" meanWaitingTime="0.26" meanTravelTime="46.71" meanSpeed="4.86" meanSpeedRelative="0.35" duration="0"/>
    <step time="100.00" loaded="103" inserted="51" running="37" waiting="0" ended="14" arrived="14" collisions="0" teleports="0" halting="10" stopped="0" meanWaitingTime="0.25" meanTravelTime="46.71" meanSpeed="4.74" meanSpeedRelative="0.34" duration="0"/>
    <step time="101.00" loaded="103" inserted="51" running="35" waiting="0" ended="16" arrived="16" collisions="0" teleports="0" halting="10" stopped="0" meanWaitingTime="0.25" meanTravelTime="47.25" meanSpeed="4.29" meanSpeedRelative="0.31" duration="0"/>
    <step time="102.00" loaded="103" inserted="51" running="35" waiting="1" ended="16" arrived="16" collisions="0" teleports="0" halting="11" stopped="0" meanWaitingTime="0.25" meanTravelTime="47.25" meanSpeed="3.96" meanSpeedRelative="0.29" duration="0"/>
    <step time="103.00" loaded="103" inserted="52" running="36" waiting="0" ended="16" arrived="16" collisions="0" teleports="0" halting="15" stopped="0" meanWaitingTime="0.27" meanTravelTime="47.25" meanSpeed="3.57" meanSpeedRelative="0.26" duration="0"/>
    <step time="104.00" loaded="103" inserted="53" running="37" waiting="0" ended="16" arrived="16" collisions="0" teleports="0" halting="16" stopped="0" meanWaitingTime="0.26" meanTravelTime="47.25" meanSpeed="3.64" meanSpeedRelative="0.26" duration="0"/>
    <step time="105.00" loaded="103" inserted="53" running="37" waiting="0" ended="16" arrived="16" collisions="0" teleports="0" halting="17" stopped="0" meanWaitingTime="0.26" meanTravelTime="47.25" meanSpeed="3.87" meanSpeedRelative="0.28" duration="0"/>
    <step time="106.00" loaded="103" inserted="54" running="37" waiting="0" ended="17" arrived="17" collisions="0" teleports="0" halting="19" stopped="0" meanWaitingTime="0.26" meanTravelTime="47.41" meanSpeed="3.50" meanSpeedRelative="0.25" duration="0"/>
    <step time="107.00" loaded="103" inserted="54" running="37" waiting="0" ended="17" arrived="17" collisions="0" teleports="0" halting="19" stopped="0" meanWaitingTime="0.26" meanTravelTime="47.41" meanSpeed="3.42" meanSpeedRelative="0.25" duration="0"/>
    <step time="108.00" loaded="103" inserted="55" running="38" waiting="0" ended="17" arrived="17" collisions="0" teleports="0" halting="22" stopped="0" meanWaitingTime="0.25" meanTravelTime="47.41" meanSpeed="3.02" meanSpeedRelative="0.22" duration="1"/>
    <step time="109.00" loaded="103" inserted="55" running="38" waiting="0" ended="17" arrived="17" collisions="0" teleports="0" halting="20" stopped="0" meanWaitingTime="0.25" meanTravelTime="47.41" meanSpeed="3.14" meanSpeedRelative="0.23" duration="0"/>
    <step time="110.00" loaded="103" inserted="56" running="37" waiting="0" ended="19" arrived="19" collisions="0" teleports="0" halting="23" stopped="0" meanWaitingTime="0.25" meanTravelTime="47.37" meanSpeed="2.17" meanSpeedRelative="0.16" duration="0"/>
    <step time="111.00" loaded="103" inserted="56" running="37" waiting="0" ended="19" arrived="19" collisions="0" teleports="0" halting="23" stopped="0" meanWaitingTime="0.25" meanTravelTime="47.37" meanSpeed="2.16" meanSpeedRelative="0.16" duration="0"/>
    <step time="112.00" loaded="103" inserted="57" running="38" waiting="0" ended="19" arrived="19" collisions="0" teleports="0" halting="25" stopped="0" meanWaitingTime="0.25" meanTravelTime="47.37" meanSpeed="1.77" meanSpeedRelative="0.13" duration="0"/>
    <step time="113.00" loaded="103" inserted="57" running="38" waiting="0" ended="19" arrived="19" collisions="0" teleports="0" halting="23" stopped="0" meanWaitingTime="0.25" meanTravelTime="47.37" meanSpeed="1.77" meanSpeedRelative="0.13" duration="0"/>