<?xml version="1.0" encoding="UTF-8"?>

<!-- generated on 2025-01-23 16:06:21 by Eclipse SUMO sumo Version 1.20.0
<configuration xmlns:xsi="http://www.w3.org/2001/XMLSchema-instance" xsi:noNamespaceSchemaLocation="http://sumo.dlr.de/xsd/sumoConfiguration.xsd">

    <input>
        <net-file value="Simulation Files\reduced_network.net.xml"/>
        <route-files value="Simulation Files\randomRoutes.rou.xml"/>
    </input>

    <output>
        <summary-output value="Simulation Files\output.sumocfg"/>
    </output>

    <time>
        <begin value="0"/>
        <end value="100"/>
    </time>

    <traci_server>
        <remote-port value="51013"/>
    </traci_server>

</configuration>
-->

<summary xmlns:xsi="http://www.w3.org/2001/XMLSchema-instance" xsi:noNamespaceSchemaLocation="http://sumo.dlr.de/xsd/summary_file.xsd">
    <step time="0.00" loaded="2" inserted="1" running="1" waiting="0" ended="0" arrived="0" collisions="0" teleports="0" halting="1" stopped="0" meanWaitingTime="0.00" meanTravelTime="-1.00" meanSpeed="0.00" meanSpeedRelative="0.00" duration="0"/>
    <step time="1.00" loaded="2" inserted="1" running="1" waiting="0" ended="0" arrived="0" collisions="0" teleports="0" halting="0" stopped="0" meanWaitingTime="0.00" meanTravelTime="-1.00" meanSpeed="1.73" meanSpeedRelative="0.12" duration="0"/>
    <step time="2.00" loaded="103" inserted="2" running="2" waiting="0" ended="0" arrived="0" collisions="0" teleports="0" halting="1" stopped="0" meanWaitingTime="0.00" meanTravelTime="-1.00" meanSpeed="1.62" meanSpeedRelative="0.12" duration="3"/>
    <step time="3.00" loaded="103" inserted="2" running="2" waiting="0" ended="0" arrived="0" collisions="0" teleports="0" halting="0" stopped="0" meanWaitingTime="0.00" meanTravelTime="-1.00" meanSpeed="3.68" meanSpeedRelative="0.27" duration="0"/>
    <step time="4.00" loaded="103" inserted="3" running="3" waiting="0" ended="0" arrived="0" collisions="0" teleports="0" halting="1" stopped="0" meanWaitingTime="0.00" meanTravelTime="-1.00" meanSpeed="3.72" meanSpeedRelative="0.27" duration="1"/>
    <step time="5.00" loaded="103" inserted="3" running="3" waiting="0" ended="0" arrived="0" collisions="0" teleports="0" halting="0" stopped="0" meanWaitingTime="0.00" meanTravelTime="-1.00" meanSpeed="5.36" meanSpeedRelative="0.39" duration="0"/>
    <step time="6.00" loaded="103" inserted="4" running="4" waiting="0" ended="0" arrived="0" collisions="0" teleports="0" halting="1" stopped="0" meanWaitingTime="0.00" meanTravelTime="-1.00" meanSpeed="3.90" meanSpeedRelative="0.28" duration="1"/>
    <step time="7.00" loaded="103" inserted="4" running="4" waiting="0" ended="0" arrived="0" collisions="0" teleports="0" halting="0" stopped="0" meanWaitingTime="0.00" meanTravelTime="-1.00" meanSpeed="4.20" meanSpeedRelative="0.30" duration="0"/>
    <step time="8.00" loaded="103" inserted="5" running="5" waiting="0" ended="0" arrived="0" collisions="0" teleports="0" halting="1" stopped="0" meanWaitingTime="0.00" meanTravelTime="-1.00" meanSpeed="4.74" meanSpeedRelative="0.34" duration="0"/>
    <step time="9.00" loaded="103" inserted="5" running="5" waiting="0" ended="0" arrived="0" collisions="0" teleports="0" halting="0" stopped="0" meanWaitingTime="0.00" meanTravelTime="-1.00" meanSpeed="4.97" meanSpeedRelative="0.36" duration="0"/>
    <step time="10.00" loaded="103" inserted="6" running="6" waiting="0" ended="0" arrived="0" collisions="0" teleports="0" halting="1" stopped="0" meanWaitingTime="0.00" meanTravelTime="-1.00" meanSpeed="4.66" meanSpeedRelative="0.34" duration="0"/>
    <step time="11.00" loaded="103" inserted="6" running="6" waiting="0" ended="0" arrived="0" collisions="0" teleports="0" halting="0" stopped="0" meanWaitingTime="0.00" meanTravelTime="-1.00" meanSpeed="6.03" meanSpeedRelative="0.43" duration="0"/>
    <step time="12.00" loaded="103" inserted="7" running="6" waiting="0" ended="1" arrived="1" collisions="0" teleports="0" halting="1" stopped="0" meanWaitingTime="0.00" meanTravelTime="6.00" meanSpeed="5.78" meanSpeedRelative="0.42" duration="0"/>
    <step time="13.00" loaded="103" inserted="7" running="6" waiting="0" ended="1" arrived="1" collisions="0" teleports="0" halting="0" stopped="0" meanWaitingTime="0.00" meanTravelTime="6.00" meanSpeed="7.06" meanSpeedRelative="0.51" duration="0"/>
    <step time="14.00" loaded="103" inserted="8" running="7" waiting="0" ended="1" arrived="1" collisions="0" teleports="0" halting="1" stopped="0" meanWaitingTime="0.00" meanTravelTime="6.00" meanSpeed="5.99" meanSpeedRelative="0.43" duration="0"/>
    <step time="15.00" loaded="103" inserted="8" running="7" waiting="0" ended="1" arrived="1" collisions="0" teleports="0" halting="0" stopped="0" meanWaitingTime="0.00" meanTravelTime="6.00" meanSpeed="5.95" meanSpeedRelative="0.43" duration="0"/>
    <step time="16.00" loaded="103" inserted="9" running="8" waiting="0" ended="1" arrived="1" collisions="0" teleports="0" halting="1" stopped="0" meanWaitingTime="0.00" meanTravelTime="6.00" meanSpeed="5.18" meanSpeedRelative="0.37" duration="1"/>
    <step time="17.00" loaded="103" inserted="9" running="8" waiting="0" ended="1" arrived="1" collisions="0" teleports="0" halting="1" stopped="0" meanWaitingTime="0.00" meanTravelTime="6.00" meanSpeed="4.58" meanSpeedRelative="0.33" duration="0"/>
    <step time="18.00" loaded="103" inserted="10" running="9" waiting="0" ended="1" arrived="1" collisions="0" teleports="0" halting="2" stopped="0" meanWaitingTime="0.00" meanTravelTime="6.00" meanSpeed="4.57" meanSpeedRelative="0.33" duration="0"/>
    <step time="19.00" loaded="103" inserted="10" running="9" waiting="0" ended="1" arrived="1" collisions="0" teleports="0" halting="1" stopped="0" meanWaitingTime="0.00" meanTravelTime="6.00" meanSpeed="5.94" meanSpeedRelative="0.43" duration="0"/>
    <step time="20.00" loaded="103" inserted="11" running="10" waiting="0" ended="1" arrived="1" collisions="0" teleports="0" halting="1" stopped="0" meanWaitingTime="0.00" meanTravelTime="6.00" meanSpeed="5.34" meanSpeedRelative="0.38" duration="0"/>
    <step time="21.00" loaded="103" inserted="11" running="10" waiting="0" ended="1" arrived="1" collisions="0" teleports="0" halting="1" stopped="0" meanWaitingTime="0.00" meanTravelTime="6.00" meanSpeed="4.42" meanSpeedRelative="0.32" duration="0"/>
    <step time="22.00" loaded="103" inserted="12" running="11" waiting="0" ended="1" arrived="1" collisions="0" teleports="0" halting="1" stopped="0" meanWaitingTime="0.00" meanTravelTime="6.00" meanSpeed="4.65" meanSpeedRelative="0.33" duration="0"/>
    <step time="23.00" loaded="103" inserted="12" running="11" waiting="0" ended="1" arrived="1" collisions="0" teleports="0" halting="0" stopped="0" meanWaitingTime="0.00" meanTravelTime="6.00" meanSpeed="5.70" meanSpeedRelative="0.41" duration="0"/>
    <step time="24.00" loaded="103" inserted="12" running="11" waiting="1" ended="1" arrived="1" collisions="0" teleports="0" halting="0" stopped="0" meanWaitingTime="0.00" meanTravelTime="6.00" meanSpeed="6.07" meanSpeedRelative="0.44" duration="0"/>
    <step time="25.00" loaded="103" inserted="12" running="11" waiting="1" ended="1" arrived="1" collisions="0" teleports="0" halting="1" stopped="0" meanWaitingTime="0.00" meanTravelTime="6.00" meanSpeed="6.31" meanSpeedRelative="0.45" duration="0"/>
    <step time="26.00" loaded="103" inserted="13" running="12" waiting="1" ended="1" arrived="1" collisions="0" teleports="0" halting="1" stopped="0" meanWaitingTime="0.15" meanTravelTime="6.00" meanSpeed="6.36" meanSpeedRelative="0.46" duration="0"/>
    <step time="27.00" loaded="103" inserted="13" running="12" waiting="1" ended="1" arrived="1" collisions="0" teleports="0" halting="0" stopped="0" meanWaitingTime="0.15" meanTravelTime="6.00" meanSpeed="7.29" meanSpeedRelative="0.52" duration="0"/>
    <step time="28.00" loaded="103" inserted="14" running="12" waiting="1" ended="2" arrived="2" collisions="0" teleports="0" halting="1" stopped="0" meanWaitingTime="0.29" meanTravelTime="17.00" meanSpeed="6.39" meanSpeedRelative="0.46" duration="0"/>
    <step time="29.00" loaded="103" inserted="14" running="12" waiting="1" ended="2" arrived="2" collisions="0" teleports="0" halting="0" stopped="0" meanWaitingTime="0.29" meanTravelTime="17.00" meanSpeed="6.24" meanSpeedRelative="0.45" duration="0"/>
    <step time="30.00" loaded="103" inserted="15" running="13" waiting="1" ended="2" arrived="2" collisions="0" teleports="0" halting="1" stopped="0" meanWaitingTime="0.27" meanTravelTime="17.00" meanSpeed="6.16" meanSpeedRelative="0.44" duration="0"/>
    <step time="31.00" loaded="103" inserted="15" running="13" waiting="1" ended="2" arrived="2" collisions="0" teleports="0" halting="0" stopped="0" meanWaitingTime="0.27" meanTravelTime="17.00" meanSpeed="6.14" meanSpeedRelative="0.44" duration="0"/>
    <step time="32.00" loaded="103" inserted="16" running="13" waiting="1" ended="3" arrived="3" collisions="0" teleports="0" halting="2" stopped="0" meanWaitingTime="0.25" meanTravelTime="20.67" meanSpeed="5.05" meanSpeedRelative="0.36" duration="0"/>
    <step time="33.00" loaded="103" inserted="16" running="13" waiting="1" ended="3" arrived="3" collisions="0" teleports="0" halting="0" stopped="0" meanWaitingTime="0.25" meanTravelTime="20.67" meanSpeed="5.76" meanSpeedRelative="0.41" duration="0"/>
    <step time="34.00" loaded="103" inserted="17" running="14" waiting="1" ended="3" arrived="3" collisions="0" teleports="0" halting="1" stopped="0" meanWaitingTime="0.59" meanTravelTime="20.67" meanSpeed="6.23" meanSpeedRelative="0.45" duration="0"/>
    <step time="35.00" loaded="103" inserted="17" running="13" waiting="1" ended="4" arrived="4" collisions="0" teleports="0" halting="0" stopped="0" meanWaitingTime="0.59" meanTravelTime="20.75" meanSpeed="6.03" meanSpeedRelative="0.43" duration="1"/>
    <step time="36.00" loaded="103" inserted="19" running="14" waiting="0" ended="5" arrived="5" collisions="0" teleports="0" halting="2" stopped="0" meanWaitingTime="0.63" meanTravelTime="23.40" meanSpeed="4.72" meanSpeedRelative="0.34" duration="0"/>
    <step time="37.00" loaded="103" inserted="19" running="14" waiting="0" ended="5" arrived="5" collisions="0" teleports="0" halting="1" stopped="0" meanWaitingTime="0.63" meanTravelTime="23.40" meanSpeed="5.57" meanSpeedRelative="0.40" duration="0"/>
    <step time="38.00" loaded="103" inserted="19" running="14" waiting="1" ended="5" arrived="5" collisions="0" teleports="0" halting="2" stopped="0" meanWaitingTime="0.63" meanTravelTime="23.40" meanSpeed="5.83" meanSpeedRelative="0.42" duration="0"/>
    <step time="39.00" loaded="103" inserted="19" running="13" waiting="1" ended="6" arrived="6" collisions="0" teleports="0" halting="2" stopped="0" meanWaitingTime="0.63" meanTravelTime="24.33" meanSpeed="4.79" meanSpeedRelative="0.34" duration="0"/>
    <step time="40.00" loaded="103" inserted="20" running="14" waiting="1" ended="6" arrived="6" collisions="0" teleports="0" halting="3" stopped="0" meanWaitingTime="0.60" meanTravelTime="24.33" meanSpeed="3.57" meanSpeedRelative="0.26" duration="1"/>
    <step time="41.00" loaded="103" inserted="20" running="14" waiting="1" ended="6" arrived="6" collisions="0" teleports="0" halting="1" stopped="0" meanWaitingTime="0.60" meanTravelTime="24.33" meanSpeed="4.29" meanSpeedRelative="0.31" duration="0"/>
    <step time="42.00" loaded="103" inserted="20" running="14" waiting="2" ended="6" arrived="6" collisions="0" teleports="0" halting="0" stopped="0" meanWaitingTime="0.60" meanTravelTime="24.33" meanSpeed="4.56" meanSpeedRelative="0.33" duration="0"/>
    <step time="43.00" loaded="103" inserted="22" running="16" waiting="0" ended="6" arrived="6" collisions="0" teleports="0" halting="2" stopped="0" meanWaitingTime="0.82" meanTravelTime="24.33" meanSpeed="4.79" meanSpeedRelative="0.35" duration="0"/>
    <step time="44.00" loaded="103" inserted="23" running="17" waiting="0" ended="6" arrived="6" collisions="0" teleports="0" halting="1" stopped="0" meanWaitingTime="0.78" meanTravelTime="24.33" meanSpeed="5.43" meanSpeedRelative="0.39" duration="0"/>
    <step time="45.00" loaded="103" inserted="23" running="15" waiting="0" ended="8" arrived="8" collisions="0" teleports="0" halting="1" stopped="0" meanWaitingTime="0.78" meanTravelTime="22.50" meanSpeed="5.49" meanSpeedRelative="0.40" duration="0"/>
    <step time="46.00" loaded="103" inserted="24" running="14" waiting="0" ended="10" arrived="10" collisions="0" teleports="0" halting="2" stopped="0" meanWaitingTime="0.75" meanTravelTime="24.00" meanSpeed="4.75" meanSpeedRelative="0.34" duration="0"/>
    <step time="47.00" loaded="103" inserted="24" running="13" waiting="0" ended="11" arrived="11" collisions="0" teleports="0" halting="2" stopped="0" meanWaitingTime="0.75" meanTravelTime="24.09" meanSpeed="5.10" meanSpeedRelative="0.37" duration="1"/>
    <step time="48.00" loaded="103" inserted="25" running="13" waiting="0" ended="12" arrived="12" collisions="0" teleports="0" halting="4" stopped="0" meanWaitingTime="0.72" meanTravelTime="25.42" meanSpeed="3.97" meanSpeedRelative="0.29" duration="0"/>
    <step time="49.00" loaded="103" inserted="25" running="13" waiting="0" ended="12" arrived="12" collisions="0" teleports="0" halting="3" stopped="0" meanWaitingTime="0.72" meanTravelTime="25.42" meanSpeed="3.65" meanSpeedRelative="0.26" duration="0"/>
    <step time="50.00" loaded="103" inserted="25" running="13" waiting="1" ended="12" arrived="12" collisions="0" teleports="0" halting="2" stopped="0" meanWaitingTime="0.72" meanTravelTime="25.42" meanSpeed="3.53" meanSpeedRelative="0.25" duration="0"/>
    <step time="51.00" loaded="103" inserted="26" running="14" waiting="0" ended="12" arrived="12" collisions="0" teleports="0" halting="3" stopped="0" meanWaitingTime="0.73" meanTravelTime="25.42" meanSpeed="4.11" meanSpeedRelative="0.30" duration="0"/>
    <step time="52.00" loaded="103" inserted="27" running="15" waiting="0" ended="12" arrived="12" collisions="0" teleports="0" halting="1" stopped="0" meanWaitingTime="0.70" meanTravelTime="25.42" meanSpeed="4.22" meanSpeedRelative="0.30" duration="0"/>
    <step time="53.00" loaded="103" inserted="27" running="15" waiting="0" ended="12" arrived="12" collisions="0" teleports="0" halting="1" stopped="0" meanWaitingTime="0.70" meanTravelTime="25.42" meanSpeed="5.19" meanSpeedRelative="0.37" duration="0"/>
    <step time="54.00" loaded="103" inserted="28" running="16" waiting="0" ended="12" arrived="12" collisions="0" teleports="0" halting="1" stopped="0" meanWaitingTime="0.68" meanTravelTime="25.42" meanSpeed="5.50" meanSpeedRelative="0.40" duration="0"/>
    <step time="55.00" loaded="103" inserted="28" running="16" waiting="0" ended="12" arrived="12" collisions="0" teleports="0" halting="0" stopped="0" meanWaitingTime="0.68" meanTravelTime="25.42" meanSpeed="5.91" meanSpeedRelative="0.43" duration="0"/>
    <step time="56.00" loaded="103" inserted="29" running="17" waiting="0" ended="12" arrived="12" collisions="0" teleports="0" halting="2" stopped="0" meanWaitingTime="0.66" meanTravelTime="25.42" meanSpeed="5.72" meanSpeedRelative="0.41" duration="0"/>
    <step time="57.00" loaded="103" inserted="29" running="17" waiting="0" ended="12" arrived="12" collisions="0" teleports="0" halting="1" stopped="0" meanWaitingTime="0.66" meanTravelTime="25.42" meanSpeed="5.53" meanSpeedRelative="0.40" duration="0"/>
    <step time="58.00" loaded="103" inserted="30" running="17" waiting="0" ended="13" arrived="13" collisions="0" teleports="0" halting="1" stopped="0" meanWaitingTime="0.63" meanTravelTime="25.77" meanSpeed="4.87" meanSpeedRelative="0.35" duration="0"/>
    <step time="59.00" loaded="103" inserted="30" running="17" waiting="0" ended="13" arrived="13" collisions="0" teleports="0" halting="0" stopped="0" meanWaitingTime="0.63" meanTravelTime="25.77" meanSpeed="5.34" meanSpeedRelative="0.38" duration="0"/>
    <step time="60.00" loaded="103" inserted="30" running="16" waiting="1" ended="14" arrived="14" collisions="0" teleports="0" halting="0" stopped="0" meanWaitingTime="0.63" meanTravelTime="26.93" meanSpeed="5.67" meanSpeedRelative="0.41" duration="0"/>
    <step time="61.00" loaded="103" inserted="30" running="15" waiting="1" ended="15" arrived="15" collisions="0" teleports="0" halting="1" stopped="0" meanWaitingTime="0.63" meanTravelTime="26.53" meanSpeed="4.97" meanSpeedRelative="0.36" duration="0"/>
    <step time="62.00" loaded="103" inserted="32" running="17" waiting="0" ended="15" arrived="15" collisions="0" teleports="0" halting="3" stopped="0" meanWaitingTime="0.66" meanTravelTime="26.53" meanSpeed="4.21" meanSpeedRelative="0.30" duration="0"/>
    <step time="63.00" loaded="103" inserted="32" running="17" waiting="0" ended="15" arrived="15" collisions="0" teleports="0" halting="2" stopped="0" meanWaitingTime="0.66" meanTravelTime="26.53" meanSpeed="4.80" meanSpeedRelative="0.35" duration="0"/>
    <step time="64.00" loaded="103" inserted="33" running="18" waiting="0" ended="15" arrived="15" collisions="0" teleports="0" halting="3" stopped="0" meanWaitingTime="0.64" meanTravelTime="26.53" meanSpeed="4.88" meanSpeedRelative="0.35" duration="1"/>
    <step time="65.00" loaded="103" inserted="33" running="17" waiting="0" ended="16" arrived="16" collisions="0" teleports="0" halting="1" stopped="0" meanWaitingTime="0.64" meanTravelTime="26.94" meanSpeed="5.21" meanSpeedRelative="0.38" duration="0"/>
    <step time="66.00" loaded="103" inserted="34" running="17" waiting="0" ended="17" arrived="17" collisions="0" teleports="0" halting="2" stopped="0" meanWaitingTime="0.62" meanTravelTime="28.29" meanSpeed="5.02" meanSpeedRelative="0.36" duration="0"/>
    <step time="67.00" loaded="103" inserted="34" running="16" waiting="0" ended="18" arrived="18" collisions="0" teleports="0" halting="1" stopped="0" meanWaitingTime="0.62" meanTravelTime="28.00" meanSpeed="4.81" meanSpeedRelative="0.35" duration="0"/>
    <step time="68.00" loaded="103" inserted="35" running="17" waiting="0" ended="18" arrived="18" collisions="0" teleports="0" halting="2" stopped="0" meanWaitingTime="0.60" meanTravelTime="28.00" meanSpeed="4.28" meanSpeedRelative="0.31" duration="0"/>
    <step time="69.00" loaded="103" inserted="35" running="17" waiting="0" ended="18" arrived="18" collisions="0" teleports="0" halting="1" stopped="0" meanWaitingTime="0.60" meanTravelTime="28.00" meanSpeed="4.98" meanSpeedRelative="0.36" duration="0"/>
    <step time="70.00" loaded="103" inserted="35" running="17" waiting="1" ended="18" arrived="18" collisions="0" teleports="0" halting="1" stopped="0" meanWaitingTime="0.60" meanTravelTime="28.00" meanSpeed="5.42" meanSpeedRelative="0.39" duration="0"/>
    <step time="71.00" loaded="103" inserted="35" running="17" waiting="1" ended="18" arrived="18" collisions="0" teleports="0" halting="1" stopped="0" meanWaitingTime="0.60" meanTravelTime="28.00" meanSpeed="6.08" meanSpeedRelative="0.44" duration="0"/>
    <step time="72.00" loaded="103" inserted="36" running="18" waiting="1" ended="18" arrived="18" collisions="0" teleports="0" halting="1" stopped="0" meanWaitingTime="0.58" meanTravelTime="28.00" meanSpeed="6.47" meanSpeedRelative="0.47" duration="0"/>
    <step time="73.00" loaded="103" inserted="36" running="16" waiting="1" ended="20" arrived="20" collisions="0" teleports="0" halting="0" stopped="0" meanWaitingTime="0.58" meanTravelTime="28.00" meanSpeed="6.89" meanSpeedRelative="0.50" duration="0"/>
    <step time="74.00" loaded="103" inserted="37" running="16" waiting="1" ended="21" arrived="21" collisions="0" teleports="0" halting="1" stopped="0" meanWaitingTime="0.57" meanTravelTime="28.48" meanSpeed="6.42" meanSpeedRelative="0.46" duration="0"/>
    <step time="75.00" loaded="103" inserted="38" running="15" waiting="0" ended="23" arrived="23" collisions="0" teleports="0" halting="1" stopped="0" meanWaitingTime="0.68" meanTravelTime="29.09" meanSpeed="5.91" meanSpeedRelative="0.43" duration="0"/>
    <step time="76.00" loaded="103" inserted="39" running="16" waiting="0" ended="23" arrived="23" collisions="0" teleports="0" halting="1" stopped="0" meanWaitingTime="0.67" meanTravelTime="29.09" meanSpeed="6.40" meanSpeedRelative="0.46" duration="0"/>
    <step time="77.00" loaded="103" inserted="39" running="16" waiting="0" ended="23" arrived="23" collisions="0" teleports="0" halting="1" stopped="0" meanWaitingTime="0.67" meanTravelTime="29.09" meanSpeed="6.64" meanSpeedRelative="0.48" duration="0"/>
    <step time="78.00" loaded="103" inserted="40" running="16" waiting="0" ended="24" arrived="24" collisions="0" teleports="0" halting="2" stopped="0" meanWaitingTime="0.65" meanTravelTime="28.96" meanSpeed="6.00" meanSpeedRelative="0.43" duration="0"/>
    <step time="79.00" loaded="103" inserted="40" running="14" waiting="0" ended="26" arrived="26" collisions="0" teleports="0" halting="1" stopped="0" meanWaitingTime="0.65" meanTravelTime="28.77" meanSpeed="5.30" meanSpeedRelative="0.38" duration="0"/>
    <step time="80.00" loaded="103" inserted="41" running="15" waiting="0" ended="26" arrived="26" collisions="0" teleports="0" halting="1" stopped="0" meanWaitingTime="0.63" meanTravelTime="28.77" meanSpeed="5.11" meanSpeedRelative="0.37" duration="0"/>
    <step time="81.00" loaded="103" inserted="41" running="15" waiting="0" ended="26" arrived="26" collisions="0" teleports="0" halting="2" stopped="0" meanWaitingTime="0.63" meanTravelTime="28.77" meanSpeed="5.32" meanSpeedRelative="0.38" duration="0"/>
    <step time="82.00" loaded="103" inserted="41" running="15" waiting="1" ended="26" arrived="26" collisions="0" teleports="0" halting="2" stopped="0" meanWaitingTime="0.63" meanTravelTime="28.77" meanSpeed="5.99" meanSpeedRelative="0.43" duration="1"/>
    <step time="83.00" loaded="103" inserted="42" running="15" waiting="0" ended="27" arrived="27" collisions="0" teleports="0" halting="1" stopped="0" meanWaitingTime="0.64" meanTravelTime="28.48" meanSpeed="5.87" meanSpeedRelative="0.42" duration="0"/>
    <step time="84.00" loaded="103" inserted="42" running="15" waiting="1" ended="27" arrived="27" collisions="0" teleports="0" halting="1" stopped="0" meanWaitingTime="0.64" meanTravelTime="28.48" meanSpeed="5.68" meanSpeedRelative="0.41" duration="0"/>
    <step time="85.00" loaded="103" inserted="43" running="15" waiting="0" ended="28" arrived="28" collisions="0" teleports="0" halting="1" stopped="0" meanWaitingTime="0.65" meanTravelTime="28.57" meanSpeed="4.76" meanSpeedRelative="0.34" duration="0"/>
    <step time="86.00" loaded="103" inserted="44" running="16" waiting="0" ended="28" arrived="28" collisions="0" teleports="0" halting="2" stopped="0" meanWaitingTime="0.64" meanTravelTime="28.57" meanSpeed="5.10" meanSpeedRelative="0.37" duration="1"/>
    <step time="87.00" loaded="103" inserted="44" running="16" waiting="0" ended="28" arrived="28" collisions="0" teleports="0" halting="1" stopped="0" meanWaitingTime="0.64" meanTravelTime="28.57" meanSpeed="6.49" meanSpeedRelative="0.47" duration="0"/>
    <step time="88.00" loaded="103" inserted="44" running="16" waiting="1" ended="28" arrived="28" collisions="0" teleports="0" halting="1" stopped="0" meanWaitingTime="0.64" meanTravelTime="28.57" meanSpeed="6.84" meanSpeedRelative="0.49" duration="0"/>
    <step time="89.00" loaded="103" inserted="45" running="15" waiting="0" ended="30" arrived="30" collisions="0" teleports="0" halting="1" stopped="0" meanWaitingTime="0.64" meanTravelTime="29.47" meanSpeed="5.84" meanSpeedRelative="0.42" duration="0"/>
    <step time="90.00" loaded="103" inserted="46" running="16" waiting="0" ended="30" arrived="30" collisions="0" teleports="0" halting="1" stopped="0" meanWaitingTime="0.63" meanTravelTime="29.47" meanSpeed="5.39" meanSpeedRelative="0.39" duration="1"/>
    <step time="91.00" loaded="103" inserted="46" running="14" waiting="0" ended="32" arrived="32" collisions="0" teleports="0" halting="1" stopped="0" meanWaitingTime="0.63" meanTravelTime="29.06" meanSpeed="4.06" meanSpeedRelative="0.29" duration="0"/>
    <step time="92.00" loaded="103" inserted="47" running="15" waiting="0" ended="32" arrived="32" collisions="0" teleports="0" halting="2" stopped="0" meanWaitingTime="0.62" meanTravelTime="29.06" meanSpeed="3.30" meanSpeedRelative="0.24" duration="0"/>
    <step time="93.00" loaded="103" inserted="47" running="15" waiting="0" ended="32" arrived="32" collisions="0" teleports="0" halting="1" stopped="0" meanWaitingTime="0.62" meanTravelTime="29.06" meanSpeed="4.16" meanSpeedRelative="0.30" duration="0"/>
    <step time="94.00" loaded="103" inserted="48" running="16" waiting="0" ended="32" arrived="32" collisions="0" teleports="0" halting="2" stopped="0" meanWaitingTime="0.60" meanTravelTime="29.06" meanSpeed="4.86" meanSpeedRelative="0.35" duration="0"/>
    <step time="95.00" loaded="103" inserted="48" running="15" waiting="0" ended="33" arrived="33" collisions="0" teleports="0" halting="1" stopped="0" meanWaitingTime="0.60" meanTravelTime="28.76" meanSpeed="5.45" meanSpeedRelative="0.39" duration="0"/>
    <step time="96.00" loaded="103" inserted="49" running="15" waiting="0" ended="34" arrived="34" collisions="0" teleports="0" halting="1" stopped="0" meanWaitingTime="0.59" meanTravelTime="28.09" meanSpeed="5.26" meanSpeedRelative="0.38" duration="0"/>
    <step time="97.00" loaded="103" inserted="49" running="15" waiting="0" ended="34" arrived="34" collisions="0" teleports="0" halting="1" stopped="0" meanWaitingTime="0.59" meanTravelTime="28.09" meanSpeed="5.08" meanSpeedRelative="0.37" duration="0"/>
    <step time="98.00" loaded="103" inserted="50" running="16" waiting="0" ended="34" arrived="34" collisions="0" teleports="0" halting="1" stopped="0" meanWaitingTime="0.58" meanTravelTime="28.09" meanSpeed="4.82" meanSpeedRelative="0.35" duration="1"/>
    <step time="99.00" loaded="103" inserted="50" running="15" waiting="0" ended="35" arrived="35" collisions="0" teleports="0" halting="1" stopped="0" meanWaitingTime="0.58" meanTravelTime="28.66" meanSpeed="4.53" meanSpeedRelative="0.33" duration="0"/>
    <step time="100.00" loaded="103" inserted="51" running="16" waiting="0" ended="35" arrived="35" collisions="0" teleports="0" halting="2" stopped="0" meanWaitingTime="0.57" meanTravelTime="28.66" meanSpeed="4.95" meanSpeedRelative="0.36" duration="0"/>
    <step time="101.00" loaded="103" inserted="51" running="15" waiting="0" ended="36" arrived="36" collisions="0" teleports="0" halting="2" stopped="0" meanWaitingTime="0.57" meanTravelTime="28.78" meanSpeed="5.63" meanSpeedRelative="0.41" duration="1"/>
    <step time="102.00" loaded="103" inserted="52" running="15" waiting="0" ended="37" arrived="37" collisions="0" teleports="0" halting="4" stopped="0" meanWaitingTime="0.56" meanTravelTime="29.03" meanSpeed="5.85" meanSpeedRelative="0.42" duration="0"/>
    <step time="103.00" loaded="103" inserted="52" running="13" waiting="0" ended="39" arrived="39" collisions="0" teleports="0" halting="2" stopped="0" meanWaitingTime="0.56" meanTravelTime="29.23" meanSpeed="5.91" meanSpeedRelative="0.43" duration="0"/>
    <step time="104.00" loaded="103" inserted="52" running="11" waiting="1" ended="41" arrived="41" collisions="0" teleports="0" halting="1" stopped="0" meanWaitingTime="0.56" meanTravelTime="28.68" meanSpeed="4.69" meanSpeedRelative="0.34" duration="0"/>
    <step time="105.00" loaded="103" inserted="52" running="10" waiting="1" ended="42" arrived="42" collisions="0" teleports="0" halting="0" stopped="0" meanWaitingTime="0.56" meanTravelTime="28.52" meanSpeed="5.18" meanSpeedRelative="0.37" duration="0"/>
    <step time="106.00" loaded="103" inserted="52" running="9" waiting="2" ended="43" arrived="43" collisions="0" teleports="0" halting="0" stopped="0" meanWaitingTime="0.56" meanTravelTime="28.35" meanSpeed="4.70" meanSpeedRelative="0.34" duration="0"/>
    <step time="107.00" loaded="103" inserted="52" running="9" waiting="2" ended="43" arrived="43" collisions="0" teleports="0" halting="0" stopped="0" meanWaitingTime="0.56" meanTravelTime="28.35" meanSpeed="6.08" meanSpeedRelative="0.44" duration="0"/>
    <step time="108.00" loaded="103" inserted="53" running="10" waiting="2" ended="43" arrived="43" collisions="0" teleports="0" halting="1" stopped="0" meanWaitingTime="0.55" meanTravelTime="28.35" meanSpeed="6.33" meanSpeedRelative="0.46" duration="0"/>
    <step time="109.00" loaded="103" inserted="54" running="11" waiting="1" ended="43" arrived="43" collisions="0" teleports="0" halting="1" stopped="0" meanWaitingTime="0.59" meanTravelTime="28.35" meanSpeed="6.78" meanSpeedRelative="0.49" duration="0"/>
    <step time="110.00" loaded="103" inserted="56" running="12" waiting="0" ended="44" arrived="44" collisions="0" teleports="0" halting="2" stopped="0" meanWaitingTime="0.68" meanTravelTime="28.57" meanSpeed="6.36" meanSpeedRelative="0.46" duration="0"/>
    <step time="111.00" loaded="103" inserted="56" running="11" waiting="0" ended="45" arrived="45" collisions="0" teleports="0" halting="0" stopped="0" meanWaitingTime="0.68" meanTravelTime="28.49" meanSpeed="7.08" meanSpeedRelative="0.51" duration="0"/>
    <step time="112.00" loaded="103" inserted="56" running="11" waiting="1" ended="45" arrived="45" collisions="0" teleports="0" halting="0" stopped="0" meanWaitingTime="0.68" meanTravelTime="28.49" meanSpeed="7.77" meanSpeedRelative="0.56" duration="0"/>
    <step time="113.00" loaded="103" inserted="56" running="9" waiting="1" ended="47" arrived="47" collisions="0" teleports="0" halting="0" stopped="0" meanWaitingTime="0.68" meanTravelTime="27.87" meanSpeed="7.13" meanSpeedRelative="0.51" duration="0"/>