<?xml version="1.0" encoding="UTF-8"?>

<!-- generated on 2025-01-20 14:21:37 by Eclipse SUMO GUI Version v1_21_0+1300-66ed36aff3d
<sumoConfiguration xmlns:xsi="http://www.w3.org/2001/XMLSchema-instance" xsi:noNamespaceSchemaLocation="http://sumo.dlr.de/xsd/sumoConfiguration.xsd">

    <input>
        <net-file value="Simulation Files/simple_network.net.xml"/>
        <route-files value="Simulation Files/randomRoutes.rou.xml"/>
    </input>

    <output>
        <summary-output value="Simulation Files/output.sumocfg"/>
    </output>

    <time>
        <begin value="0"/>
        <end value="100"/>
    </time>

    <traci_server>
        <remote-port value="55691"/>
    </traci_server>

</sumoConfiguration>
-->

<summary xmlns:xsi="http://www.w3.org/2001/XMLSchema-instance" xsi:noNamespaceSchemaLocation="http://sumo.dlr.de/xsd/summary_file.xsd">
    <step time="0.00" loaded="2" inserted="1" running="1" waiting="0" ended="0" arrived="0" collisions="0" teleports="0" halting="1" stopped="0" meanWaitingTime="0.00" meanTravelTime="-1.00" meanSpeed="0.00" meanSpeedRelative="0.00" duration="0"/>
    <step time="1.00" loaded="2" inserted="1" running="1" waiting="0" ended="0" arrived="0" collisions="0" teleports="0" halting="0" stopped="0" meanWaitingTime="0.00" meanTravelTime="-1.00" meanSpeed="2.08" meanSpeedRelative="0.15" duration="0"/>
    <step time="2.00" loaded="103" inserted="2" running="2" waiting="0" ended="0" arrived="0" collisions="0" teleports="0" halting="1" stopped="0" meanWaitingTime="0.00" meanTravelTime="-1.00" meanSpeed="2.33" meanSpeedRelative="0.17" duration="2"/>
    <step time="3.00" loaded="103" inserted="2" running="2" waiting="0" ended="0" arrived="0" collisions="0" teleports="0" halting="0" stopped="0" meanWaitingTime="0.00" meanTravelTime="-1.00" meanSpeed="3.70" meanSpeedRelative="0.27" duration="0"/>
    <step time="4.00" loaded="103" inserted="3" running="3" waiting="0" ended="0" arrived="0" collisions="0" teleports="0" halting="1" stopped="0" meanWaitingTime="0.00" meanTravelTime="-1.00" meanSpeed="3.76" meanSpeedRelative="0.27" duration="0"/>
    <step time="5.00" loaded="103" inserted="3" running="3" waiting="0" ended="0" arrived="0" collisions="0" teleports="0" halting="0" stopped="0" meanWaitingTime="0.00" meanTravelTime="-1.00" meanSpeed="5.11" meanSpeedRelative="0.37" duration="0"/>
    <step time="6.00" loaded="103" inserted="4" running="4" waiting="0" ended="0" arrived="0" collisions="0" teleports="0" halting="1" stopped="0" meanWaitingTime="0.00" meanTravelTime="-1.00" meanSpeed="3.77" meanSpeedRelative="0.27" duration="0"/>
    <step time="7.00" loaded="103" inserted="4" running="4" waiting="0" ended="0" arrived="0" collisions="0" teleports="0" halting="0" stopped="0" meanWaitingTime="0.00" meanTravelTime="-1.00" meanSpeed="5.36" meanSpeedRelative="0.39" duration="0"/>
    <step time="8.00" loaded="103" inserted="5" running="5" waiting="0" ended="0" arrived="0" collisions="0" teleports="0" halting="1" stopped="0" meanWaitingTime="0.00" meanTravelTime="-1.00" meanSpeed="4.65" meanSpeedRelative="0.33" duration="0"/>
    <step time="9.00" loaded="103" inserted="5" running="5" waiting="0" ended="0" arrived="0" collisions="0" teleports="0" halting="0" stopped="0" meanWaitingTime="0.00" meanTravelTime="-1.00" meanSpeed="5.77" meanSpeedRelative="0.42" duration="0"/>
    <step time="10.00" loaded="103" inserted="6" running="6" waiting="0" ended="0" arrived="0" collisions="0" teleports="0" halting="1" stopped="0" meanWaitingTime="0.00" meanTravelTime="-1.00" meanSpeed="5.31" meanSpeedRelative="0.38" duration="0"/>
    <step time="11.00" loaded="103" inserted="6" running="6" waiting="0" ended="0" arrived="0" collisions="0" teleports="0" halting="0" stopped="0" meanWaitingTime="0.00" meanTravelTime="-1.00" meanSpeed="5.76" meanSpeedRelative="0.41" duration="0"/>
    <step time="12.00" loaded="103" inserted="7" running="7" waiting="0" ended="0" arrived="0" collisions="0" teleports="0" halting="1" stopped="0" meanWaitingTime="0.00" meanTravelTime="-1.00" meanSpeed="4.86" meanSpeedRelative="0.35" duration="0"/>
    <step time="13.00" loaded="103" inserted="7" running="7" waiting="0" ended="0" arrived="0" collisions="0" teleports="0" halting="0" stopped="0" meanWaitingTime="0.00" meanTravelTime="-1.00" meanSpeed="5.88" meanSpeedRelative="0.42" duration="0"/>
    <step time="14.00" loaded="103" inserted="8" running="8" waiting="0" ended="0" arrived="0" collisions="0" teleports="0" halting="1" stopped="0" meanWaitingTime="0.00" meanTravelTime="-1.00" meanSpeed="5.80" meanSpeedRelative="0.42" duration="0"/>
    <step time="15.00" loaded="103" inserted="8" running="8" waiting="0" ended="0" arrived="0" collisions="0" teleports="0" halting="1" stopped="0" meanWaitingTime="0.00" meanTravelTime="-1.00" meanSpeed="5.37" meanSpeedRelative="0.39" duration="0"/>
    <step time="16.00" loaded="103" inserted="9" running="9" waiting="0" ended="0" arrived="0" collisions="0" teleports="0" halting="2" stopped="0" meanWaitingTime="0.00" meanTravelTime="-1.00" meanSpeed="5.41" meanSpeedRelative="0.39" duration="0"/>
    <step time="17.00" loaded="103" inserted="9" running="8" waiting="0" ended="1" arrived="1" collisions="0" teleports="0" halting="0" stopped="0" meanWaitingTime="0.00" meanTravelTime="11.00" meanSpeed="5.97" meanSpeedRelative="0.43" duration="0"/>
    <step time="18.00" loaded="103" inserted="10" running="9" waiting="0" ended="1" arrived="1" collisions="0" teleports="0" halting="1" stopped="0" meanWaitingTime="0.00" meanTravelTime="11.00" meanSpeed="6.42" meanSpeedRelative="0.46" duration="0"/>
    <step time="19.00" loaded="103" inserted="10" running="9" waiting="0" ended="1" arrived="1" collisions="0" teleports="0" halting="0" stopped="0" meanWaitingTime="0.00" meanTravelTime="11.00" meanSpeed="6.49" meanSpeedRelative="0.47" duration="0"/>
    <step time="20.00" loaded="103" inserted="11" running="10" waiting="0" ended="1" arrived="1" collisions="0" teleports="0" halting="1" stopped="0" meanWaitingTime="0.00" meanTravelTime="11.00" meanSpeed="6.16" meanSpeedRelative="0.44" duration="0"/>
    <step time="21.00" loaded="103" inserted="11" running="9" waiting="0" ended="2" arrived="2" collisions="0" teleports="0" halting="0" stopped="0" meanWaitingTime="0.00" meanTravelTime="16.00" meanSpeed="6.35" meanSpeedRelative="0.46" duration="0"/>
    <step time="22.00" loaded="103" inserted="12" running="9" waiting="0" ended="3" arrived="3" collisions="0" teleports="0" halting="1" stopped="0" meanWaitingTime="0.00" meanTravelTime="12.67" meanSpeed="5.77" meanSpeedRelative="0.42" duration="0"/>
    <step time="23.00" loaded="103" inserted="12" running="9" waiting="0" ended="3" arrived="3" collisions="0" teleports="0" halting="0" stopped="0" meanWaitingTime="0.00" meanTravelTime="12.67" meanSpeed="5.02" meanSpeedRelative="0.36" duration="0"/>
    <step time="24.00" loaded="103" inserted="13" running="10" waiting="0" ended="3" arrived="3" collisions="0" teleports="0" halting="2" stopped="0" meanWaitingTime="0.00" meanTravelTime="12.67" meanSpeed="4.21" meanSpeedRelative="0.30" duration="0"/>
    <step time="25.00" loaded="103" inserted="13" running="10" waiting="0" ended="3" arrived="3" collisions="0" teleports="0" halting="0" stopped="0" meanWaitingTime="0.00" meanTravelTime="12.67" meanSpeed="5.26" meanSpeedRelative="0.38" duration="0"/>
    <step time="26.00" loaded="103" inserted="14" running="11" waiting="0" ended="3" arrived="3" collisions="0" teleports="0" halting="2" stopped="0" meanWaitingTime="0.00" meanTravelTime="12.67" meanSpeed="5.37" meanSpeedRelative="0.39" duration="0"/>
    <step time="27.00" loaded="103" inserted="14" running="10" waiting="0" ended="4" arrived="4" collisions="0" teleports="0" halting="1" stopped="0" meanWaitingTime="0.00" meanTravelTime="15.75" meanSpeed="5.72" meanSpeedRelative="0.41" duration="0"/>
    <step time="28.00" loaded="103" inserted="14" running="10" waiting="1" ended="4" arrived="4" collisions="0" teleports="0" halting="1" stopped="0" meanWaitingTime="0.00" meanTravelTime="15.75" meanSpeed="5.77" meanSpeedRelative="0.42" duration="0"/>
    <step time="29.00" loaded="103" inserted="15" running="11" waiting="0" ended="4" arrived="4" collisions="0" teleports="0" halting="1" stopped="0" meanWaitingTime="0.07" meanTravelTime="15.75" meanSpeed="6.47" meanSpeedRelative="0.47" duration="0"/>
    <step time="30.00" loaded="103" inserted="16" running="12" waiting="0" ended="4" arrived="4" collisions="0" teleports="0" halting="2" stopped="0" meanWaitingTime="0.06" meanTravelTime="15.75" meanSpeed="6.13" meanSpeedRelative="0.44" duration="0"/>
    <step time="31.00" loaded="103" inserted="16" running="12" waiting="0" ended="4" arrived="4" collisions="0" teleports="0" halting="0" stopped="0" meanWaitingTime="0.06" meanTravelTime="15.75" meanSpeed="6.47" meanSpeedRelative="0.47" duration="0"/>
    <step time="32.00" loaded="103" inserted="17" running="12" waiting="0" ended="5" arrived="5" collisions="0" teleports="0" halting="1" stopped="0" meanWaitingTime="0.06" meanTravelTime="18.20" meanSpeed="4.68" meanSpeedRelative="0.34" duration="0"/>
    <step time="33.00" loaded="103" inserted="17" running="12" waiting="0" ended="5" arrived="5" collisions="0" teleports="0" halting="2" stopped="0" meanWaitingTime="0.06" meanTravelTime="18.20" meanSpeed="4.80" meanSpeedRelative="0.35" duration="0"/>
    <step time="34.00" loaded="103" inserted="17" running="12" waiting="1" ended="5" arrived="5" collisions="0" teleports="0" halting="1" stopped="0" meanWaitingTime="0.06" meanTravelTime="18.20" meanSpeed="4.76" meanSpeedRelative="0.34" duration="0"/>
    <step time="35.00" loaded="103" inserted="18" running="13" waiting="0" ended="5" arrived="5" collisions="0" teleports="0" halting="1" stopped="0" meanWaitingTime="0.11" meanTravelTime="18.20" meanSpeed="4.45" meanSpeedRelative="0.32" duration="0"/>
    <step time="36.00" loaded="103" inserted="19" running="14" waiting="0" ended="5" arrived="5" collisions="0" teleports="0" halting="2" stopped="0" meanWaitingTime="0.11" meanTravelTime="18.20" meanSpeed="4.51" meanSpeedRelative="0.32" duration="1"/>
    <step time="37.00" loaded="103" inserted="19" running="14" waiting="0" ended="5" arrived="5" collisions="0" teleports="0" halting="0" stopped="0" meanWaitingTime="0.11" meanTravelTime="18.20" meanSpeed="5.83" meanSpeedRelative="0.42" duration="0"/>
    <step time="38.00" loaded="103" inserted="20" running="15" waiting="0" ended="5" arrived="5" collisions="0" teleports="0" halting="1" stopped="0" meanWaitingTime="0.10" meanTravelTime="18.20" meanSpeed="6.21" meanSpeedRelative="0.45" duration="1"/>
    <step time="39.00" loaded="103" inserted="20" running="14" waiting="0" ended="6" arrived="6" collisions="0" teleports="0" halting="0" stopped="0" meanWaitingTime="0.10" meanTravelTime="20.00" meanSpeed="6.44" meanSpeedRelative="0.46" duration="0"/>
    <step time="40.00" loaded="103" inserted="21" running="15" waiting="0" ended="6" arrived="6" collisions="0" teleports="0" halting="1" stopped="0" meanWaitingTime="0.10" meanTravelTime="20.00" meanSpeed="6.72" meanSpeedRelative="0.48" duration="1"/>
    <step time="41.00" loaded="103" inserted="21" running="15" waiting="0" ended="6" arrived="6" collisions="0" teleports="0" halting="0" stopped="0" meanWaitingTime="0.10" meanTravelTime="20.00" meanSpeed="6.66" meanSpeedRelative="0.48" duration="0"/>
    <step time="42.00" loaded="103" inserted="22" running="16" waiting="0" ended="6" arrived="6" collisions="0" teleports="0" halting="1" stopped="0" meanWaitingTime="0.09" meanTravelTime="20.00" meanSpeed="6.36" meanSpeedRelative="0.46" duration="0"/>
    <step time="43.00" loaded="103" inserted="22" running="16" waiting="0" ended="6" arrived="6" collisions="0" teleports="0" halting="1" stopped="0" meanWaitingTime="0.09" meanTravelTime="20.00" meanSpeed="6.07" meanSpeedRelative="0.44" duration="0"/>
    <step time="44.00" loaded="103" inserted="23" running="17" waiting="0" ended="6" arrived="6" collisions="0" teleports="0" halting="2" stopped="0" meanWaitingTime="0.09" meanTravelTime="20.00" meanSpeed="6.19" meanSpeedRelative="0.45" duration="0"/>
    <step time="45.00" loaded="103" inserted="23" running="17" waiting="0" ended="6" arrived="6" collisions="0" teleports="0" halting="0" stopped="0" meanWaitingTime="0.09" meanTravelTime="20.00" meanSpeed="6.50" meanSpeedRelative="0.47" duration="0"/>
    <step time="46.00" loaded="103" inserted="23" running="17" waiting="1" ended="6" arrived="6" collisions="0" teleports="0" halting="0" stopped="0" meanWaitingTime="0.09" meanTravelTime="20.00" meanSpeed="6.78" meanSpeedRelative="0.49" duration="0"/>
    <step time="47.00" loaded="103" inserted="24" running="17" waiting="0" ended="7" arrived="7" collisions="0" teleports="0" halting="1" stopped="0" meanWaitingTime="0.12" meanTravelTime="20.14" meanSpeed="5.51" meanSpeedRelative="0.40" duration="0"/>
    <step time="48.00" loaded="103" inserted="24" running="17" waiting="1" ended="7" arrived="7" collisions="0" teleports="0" halting="1" stopped="0" meanWaitingTime="0.12" meanTravelTime="20.14" meanSpeed="5.13" meanSpeedRelative="0.37" duration="0"/>
    <step time="49.00" loaded="103" inserted="24" running="16" waiting="1" ended="8" arrived="8" collisions="0" teleports="0" halting="2" stopped="0" meanWaitingTime="0.12" meanTravelTime="22.00" meanSpeed="5.65" meanSpeedRelative="0.41" duration="0"/>
    <step time="50.00" loaded="103" inserted="24" running="15" waiting="2" ended="9" arrived="9" collisions="0" teleports="0" halting="1" stopped="0" meanWaitingTime="0.12" meanTravelTime="22.67" meanSpeed="5.91" meanSpeedRelative="0.43" duration="0"/>
    <step time="51.00" loaded="103" inserted="25" running="16" waiting="1" ended="9" arrived="9" collisions="0" teleports="0" halting="3" stopped="0" meanWaitingTime="0.16" meanTravelTime="22.67" meanSpeed="5.74" meanSpeedRelative="0.41" duration="0"/>
    <step time="52.00" loaded="103" inserted="25" running="16" waiting="2" ended="9" arrived="9" collisions="0" teleports="0" halting="2" stopped="0" meanWaitingTime="0.16" meanTravelTime="22.67" meanSpeed="6.29" meanSpeedRelative="0.45" duration="0"/>
    <step time="53.00" loaded="103" inserted="26" running="15" waiting="1" ended="11" arrived="11" collisions="0" teleports="0" halting="3" stopped="0" meanWaitingTime="0.35" meanTravelTime="24.18" meanSpeed="5.51" meanSpeedRelative="0.40" duration="0"/>
    <step time="54.00" loaded="103" inserted="28" running="16" waiting="0" ended="12" arrived="12" collisions="0" teleports="0" halting="4" stopped="0" meanWaitingTime="0.39" meanTravelTime="25.00" meanSpeed="4.65" meanSpeedRelative="0.34" duration="0"/>
    <step time="55.00" loaded="103" inserted="28" running="16" waiting="0" ended="12" arrived="12" collisions="0" teleports="0" halting="1" stopped="0" meanWaitingTime="0.39" meanTravelTime="25.00" meanSpeed="5.26" meanSpeedRelative="0.38" duration="0"/>
    <step time="56.00" loaded="103" inserted="29" running="16" waiting="0" ended="13" arrived="13" collisions="0" teleports="0" halting="1" stopped="0" meanWaitingTime="0.38" meanTravelTime="26.77" meanSpeed="5.37" meanSpeedRelative="0.39" duration="0"/>
    <step time="57.00" loaded="103" inserted="29" running="15" waiting="0" ended="14" arrived="14" collisions="0" teleports="0" halting="0" stopped="0" meanWaitingTime="0.38" meanTravelTime="26.07" meanSpeed="5.88" meanSpeedRelative="0.42" duration="0"/>
    <step time="58.00" loaded="103" inserted="29" running="15" waiting="1" ended="14" arrived="14" collisions="0" teleports="0" halting="1" stopped="0" meanWaitingTime="0.38" meanTravelTime="26.07" meanSpeed="6.52" meanSpeedRelative="0.47" duration="0"/>
    <step time="59.00" loaded="103" inserted="29" running="14" waiting="1" ended="15" arrived="15" collisions="0" teleports="0" halting="1" stopped="0" meanWaitingTime="0.38" meanTravelTime="27.07" meanSpeed="6.03" meanSpeedRelative="0.43" duration="0"/>
    <step time="60.00" loaded="103" inserted="31" running="16" waiting="0" ended="15" arrived="15" collisions="0" teleports="0" halting="3" stopped="0" meanWaitingTime="0.42" meanTravelTime="27.07" meanSpeed="5.41" meanSpeedRelative="0.39" duration="0"/>
    <step time="61.00" loaded="103" inserted="31" running="15" waiting="0" ended="16" arrived="16" collisions="0" teleports="0" halting="0" stopped="0" meanWaitingTime="0.42" meanTravelTime="26.56" meanSpeed="5.65" meanSpeedRelative="0.41" duration="0"/>
    <step time="62.00" loaded="103" inserted="32" running="15" waiting="0" ended="17" arrived="17" collisions="0" teleports="0" halting="1" stopped="0" meanWaitingTime="0.41" meanTravelTime="26.94" meanSpeed="5.40" meanSpeedRelative="0.39" duration="0"/>
    <step time="63.00" loaded="103" inserted="32" running="15" waiting="0" ended="17" arrived="17" collisions="0" teleports="0" halting="0" stopped="0" meanWaitingTime="0.41" meanTravelTime="26.94" meanSpeed="5.66" meanSpeedRelative="0.41" duration="0"/>
    <step time="64.00" loaded="103" inserted="32" running="15" waiting="1" ended="17" arrived="17" collisions="0" teleports="0" halting="0" stopped="0" meanWaitingTime="0.41" meanTravelTime="26.94" meanSpeed="5.81" meanSpeedRelative="0.42" duration="1"/>
    <step time="65.00" loaded="103" inserted="33" running="16" waiting="0" ended="17" arrived="17" collisions="0" teleports="0" halting="3" stopped="0" meanWaitingTime="0.42" meanTravelTime="26.94" meanSpeed="5.50" meanSpeedRelative="0.40" duration="0"/>
    <step time="66.00" loaded="103" inserted="34" running="17" waiting="0" ended="17" arrived="17" collisions="0" teleports="0" halting="1" stopped="0" meanWaitingTime="0.41" meanTravelTime="26.94" meanSpeed="5.36" meanSpeedRelative="0.39" duration="0"/>
    <step time="67.00" loaded="103" inserted="34" running="17" waiting="0" ended="17" arrived="17" collisions="0" teleports="0" halting="2" stopped="0" meanWaitingTime="0.41" meanTravelTime="26.94" meanSpeed="5.50" meanSpeedRelative="0.40" duration="0"/>
    <step time="68.00" loaded="103" inserted="34" running="16" waiting="1" ended="18" arrived="18" collisions="0" teleports="0" halting="2" stopped="0" meanWaitingTime="0.41" meanTravelTime="26.28" meanSpeed="5.04" meanSpeedRelative="0.36" duration="0"/>
    <step time="69.00" loaded="103" inserted="34" running="16" waiting="1" ended="18" arrived="18" collisions="0" teleports="0" halting="3" stopped="0" meanWaitingTime="0.41" meanTravelTime="26.28" meanSpeed="4.86" meanSpeedRelative="0.35" duration="0"/>
    <step time="70.00" loaded="103" inserted="36" running="17" waiting="0" ended="19" arrived="19" collisions="0" teleports="0" halting="4" stopped="0" meanWaitingTime="0.44" meanTravelTime="25.89" meanSpeed="4.31" meanSpeedRelative="0.31" duration="0"/>
    <step time="71.00" loaded="103" inserted="36" running="17" waiting="0" ended="19" arrived="19" collisions="0" teleports="0" halting="1" stopped="0" meanWaitingTime="0.44" meanTravelTime="25.89" meanSpeed="4.64" meanSpeedRelative="0.33" duration="0"/>
    <step time="72.00" loaded="103" inserted="37" running="18" waiting="0" ended="19" arrived="19" collisions="0" teleports="0" halting="1" stopped="0" meanWaitingTime="0.43" meanTravelTime="25.89" meanSpeed="4.97" meanSpeedRelative="0.36" duration="0"/>
    <step time="73.00" loaded="103" inserted="37" running="17" waiting="0" ended="20" arrived="20" collisions="0" teleports="0" halting="0" stopped="0" meanWaitingTime="0.43" meanTravelTime="26.50" meanSpeed="5.36" meanSpeedRelative="0.39" duration="0"/>
    <step time="74.00" loaded="103" inserted="38" running="17" waiting="0" ended="21" arrived="21" collisions="0" teleports="0" halting="1" stopped="0" meanWaitingTime="0.42" meanTravelTime="27.33" meanSpeed="5.60" meanSpeedRelative="0.40" duration="1"/>
    <step time="75.00" loaded="103" inserted="38" running="17" waiting="0" ended="21" arrived="21" collisions="0" teleports="0" halting="0" stopped="0" meanWaitingTime="0.42" meanTravelTime="27.33" meanSpeed="6.54" meanSpeedRelative="0.47" duration="0"/>
    <step time="76.00" loaded="103" inserted="38" running="17" waiting="1" ended="21" arrived="21" collisions="0" teleports="0" halting="0" stopped="0" meanWaitingTime="0.42" meanTravelTime="27.33" meanSpeed="6.94" meanSpeedRelative="0.50" duration="0"/>
    <step time="77.00" loaded="103" inserted="39" running="18" waiting="0" ended="21" arrived="21" collisions="0" teleports="0" halting="1" stopped="0" meanWaitingTime="0.44" meanTravelTime="27.33" meanSpeed="5.98" meanSpeedRelative="0.43" duration="0"/>
    <step time="78.00" loaded="103" inserted="40" running="18" waiting="0" ended="22" arrived="22" collisions="0" teleports="0" halting="1" stopped="0" meanWaitingTime="0.42" meanTravelTime="28.55" meanSpeed="4.59" meanSpeedRelative="0.33" duration="0"/>
    <step time="79.00" loaded="103" inserted="40" running="18" waiting="0" ended="22" arrived="22" collisions="0" teleports="0" halting="0" stopped="0" meanWaitingTime="0.42" meanTravelTime="28.55" meanSpeed="5.00" meanSpeedRelative="0.36" duration="0"/>
    <step time="80.00" loaded="103" inserted="41" running="19" waiting="0" ended="22" arrived="22" collisions="0" teleports="0" halting="2" stopped="0" meanWaitingTime="0.41" meanTravelTime="28.55" meanSpeed="5.02" meanSpeedRelative="0.36" duration="0"/>
    <step time="81.00" loaded="103" inserted="41" running="17" waiting="0" ended="24" arrived="24" collisions="0" teleports="0" halting="1" stopped="0" meanWaitingTime="0.41" meanTravelTime="28.62" meanSpeed="5.44" meanSpeedRelative="0.39" duration="0"/>
    <step time="82.00" loaded="103" inserted="41" running="17" waiting="1" ended="24" arrived="24" collisions="0" teleports="0" halting="1" stopped="0" meanWaitingTime="0.41" meanTravelTime="28.62" meanSpeed="6.49" meanSpeedRelative="0.47" duration="0"/>
    <step time="83.00" loaded="103" inserted="42" running="18" waiting="0" ended="24" arrived="24" collisions="0" teleports="0" halting="1" stopped="0" meanWaitingTime="0.43" meanTravelTime="28.62" meanSpeed="6.86" meanSpeedRelative="0.49" duration="0"/>
    <step time="84.00" loaded="103" inserted="43" running="14" waiting="0" ended="29" arrived="29" collisions="0" teleports="0" halting="2" stopped="0" meanWaitingTime="0.42" meanTravelTime="29.76" meanSpeed="4.84" meanSpeedRelative="0.35" duration="0"/>
    <step time="85.00" loaded="103" inserted="43" running="14" waiting="0" ended="29" arrived="29" collisions="0" teleports="0" halting="0" stopped="0" meanWaitingTime="0.42" meanTravelTime="29.76" meanSpeed="4.81" meanSpeedRelative="0.35" duration="0"/>
    <step time="86.00" loaded="103" inserted="44" running="14" waiting="0" ended="30" arrived="30" collisions="0" teleports="0" halting="2" stopped="0" meanWaitingTime="0.41" meanTravelTime="29.63" meanSpeed="3.85" meanSpeedRelative="0.28" duration="0"/>
    <step time="87.00" loaded="103" inserted="44" running="14" waiting="0" ended="30" arrived="30" collisions="0" teleports="0" halting="0" stopped="0" meanWaitingTime="0.41" meanTravelTime="29.63" meanSpeed="5.05" meanSpeedRelative="0.36" duration="0"/>
    <step time="88.00" loaded="103" inserted="45" running="15" waiting="0" ended="30" arrived="30" collisions="0" teleports="0" halting="2" stopped="0" meanWaitingTime="0.40" meanTravelTime="29.63" meanSpeed="5.53" meanSpeedRelative="0.40" duration="0"/>
    <step time="89.00" loaded="103" inserted="45" running="15" waiting="0" ended="30" arrived="30" collisions="0" teleports="0" halting="0" stopped="0" meanWaitingTime="0.40" meanTravelTime="29.63" meanSpeed="6.12" meanSpeedRelative="0.44" duration="0"/>
    <step time="90.00" loaded="103" inserted="45" running="15" waiting="1" ended="30" arrived="30" collisions="0" teleports="0" halting="0" stopped="0" meanWaitingTime="0.40" meanTravelTime="29.63" meanSpeed="5.58" meanSpeedRelative="0.40" duration="0"/>
    <step time="91.00" loaded="103" inserted="45" running="14" waiting="1" ended="31" arrived="31" collisions="0" teleports="0" halting="1" stopped="0" meanWaitingTime="0.40" meanTravelTime="29.87" meanSpeed="4.75" meanSpeedRelative="0.34" duration="0"/>
    <step time="92.00" loaded="103" inserted="46" running="15" waiting="1" ended="31" arrived="31" collisions="0" teleports="0" halting="3" stopped="0" meanWaitingTime="0.39" meanTravelTime="29.87" meanSpeed="4.20" meanSpeedRelative="0.30" duration="0"/>
    <step time="93.00" loaded="103" inserted="46" running="15" waiting="1" ended="31" arrived="31" collisions="0" teleports="0" halting="1" stopped="0" meanWaitingTime="0.39" meanTravelTime="29.87" meanSpeed="4.31" meanSpeedRelative="0.31" duration="0"/>
    <step time="94.00" loaded="103" inserted="47" running="16" waiting="1" ended="31" arrived="31" collisions="0" teleports="0" halting="3" stopped="0" meanWaitingTime="0.38" meanTravelTime="29.87" meanSpeed="4.39" meanSpeedRelative="0.32" duration="0"/>
    <step time="95.00" loaded="103" inserted="47" running="16" waiting="1" ended="31" arrived="31" collisions="0" teleports="0" halting="2" stopped="0" meanWaitingTime="0.38" meanTravelTime="29.87" meanSpeed="4.38" meanSpeedRelative="0.32" duration="0"/>
    <step time="96.00" loaded="103" inserted="49" running="18" waiting="0" ended="31" arrived="31" collisions="0" teleports="0" halting="4" stopped="0" meanWaitingTime="0.49" meanTravelTime="29.87" meanSpeed="4.27" meanSpeedRelative="0.31" duration="0"/>
    <step time="97.00" loaded="103" inserted="49" running="18" waiting="0" ended="31" arrived="31" collisions="0" teleports="0" halting="3" stopped="0" meanWaitingTime="0.49" meanTravelTime="29.87" meanSpeed="4.90" meanSpeedRelative="0.35" duration="0"/>
    <step time="98.00" loaded="103" inserted="50" running="18" waiting="0" ended="32" arrived="32" collisions="0" teleports="0" halting="5" stopped="0" meanWaitingTime="0.48" meanTravelTime="29.81" meanSpeed="4.48" meanSpeedRelative="0.32" duration="0"/>
    <step time="99.00" loaded="103" inserted="50" running="18" waiting="0" ended="32" arrived="32" collisions="0" teleports="0" halting="3" stopped="0" meanWaitingTime="0.48" meanTravelTime="29.81" meanSpeed="4.43" meanSpeedRelative="0.32" duration="1"/>
    <step time="100.00" loaded="103" inserted="51" running="19" waiting="0" ended="32" arrived="32" collisions="0" teleports="0" halting="3" stopped="0" meanWaitingTime="0.47" meanTravelTime="29.81" meanSpeed="4.89" meanSpeedRelative="0.35" duration="0"/>
    <step time="101.00" loaded="103" inserted="51" running="18" waiting="0" ended="33" arrived="33" collisions="0" teleports="0" halting="2" stopped="0" meanWaitingTime="0.47" meanTravelTime="29.97" meanSpeed="5.49" meanSpeedRelative="0.39" duration="1"/>
    <step time="102.00" loaded="103" inserted="52" running="19" waiting="0" ended="33" arrived="33" collisions="0" teleports="0" halting="2" stopped="0" meanWaitingTime="0.46" meanTravelTime="29.97" meanSpeed="5.66" meanSpeedRelative="0.41" duration="0"/>
    <step time="103.00" loaded="103" inserted="52" running="19" waiting="0" ended="33" arrived="33" collisions="0" teleports="0" halting="1" stopped="0" meanWaitingTime="0.46" meanTravelTime="29.97" meanSpeed="6.28" meanSpeedRelative="0.45" duration="0"/>
    <step time="104.00" loaded="103" inserted="53" running="18" waiting="0" ended="35" arrived="35" collisions="0" teleports="0" halting="1" stopped="0" meanWaitingTime="0.45" meanTravelTime="30.20" meanSpeed="6.28" meanSpeedRelative="0.45" duration="0"/>
    <step time="105.00" loaded="103" inserted="53" running="18" waiting="0" ended="35" arrived="35" collisions="0" teleports="0" halting="0" stopped="0" meanWaitingTime="0.45" meanTravelTime="30.20" meanSpeed="7.17" meanSpeedRelative="0.52" duration="0"/>
    <step time="106.00" loaded="103" inserted="54" running="18" waiting="0" ended="36" arrived="36" collisions="0" teleports="0" halting="1" stopped="0" meanWaitingTime="0.44" meanTravelTime="30.17" meanSpeed="6.90" meanSpeedRelative="0.50" duration="0"/>
    <step time="107.00" loaded="103" inserted="54" running="17" waiting="0" ended="37" arrived="37" collisions="0" teleports="0" halting="0" stopped="0" meanWaitingTime="0.44" meanTravelTime="29.86" meanSpeed="7.00" meanSpeedRelative="0.50" duration="0"/>
    <step time="108.00" loaded="103" inserted="55" running="17" waiting="0" ended="38" arrived="38" collisions="0" teleports="0" halting="1" stopped="0" meanWaitingTime="0.44" meanTravelTime="30.08" meanSpeed="6.98" meanSpeedRelative="0.50" duration="0"/>
    <step time="109.00" loaded="103" inserted="55" running="17" waiting="0" ended="38" arrived="38" collisions="0" teleports="0" halting="1" stopped="0" meanWaitingTime="0.44" meanTravelTime="30.08" meanSpeed="7.11" meanSpeedRelative="0.51" duration="0"/>
    <step time="110.00" loaded="103" inserted="56" running="18" waiting="0" ended="38" arrived="38" collisions="0" teleports="0" halting="1" stopped="0" meanWaitingTime="0.43" meanTravelTime="30.08" meanSpeed="6.21" meanSpeedRelative="0.45" duration="1"/>
    <step time="111.00" loaded="103" inserted="56" running="17" waiting="0" ended="39" arrived="39" collisions="0" teleports="0" halting="3" stopped="0" meanWaitingTime="0.43" meanTravelTime="29.95" meanSpeed="5.16" meanSpeedRelative="0.37" duration="0"/>
    <step time="112.00" loaded="103" inserted="57" running="18" waiting="0" ended="39" arrived="39" collisions="0" teleports="0" halting="3" stopped="0" meanWaitingTime="0.42" meanTravelTime="29.95" meanSpeed="5.17" meanSpeedRelative="0.37" duration="0"/>
    <step time="113.00" loaded="103" inserted="57" running="18" waiting="0" ended="39" arrived="39" collisions="0" teleports="0" halting="0" stopped="0" meanWaitingTime="0.42" meanTravelTime="29.95" meanSpeed="6.08" meanSpeedRelative="0.44" duration="0"/>