<?xml version="1.0" encoding="UTF-8"?>

<!-- generated on 2024-12-17 18:15:58 by Eclipse SUMO GUI Version v1_21_0+1300-66ed36aff3d
<sumoConfiguration xmlns:xsi="http://www.w3.org/2001/XMLSchema-instance" xsi:noNamespaceSchemaLocation="http://sumo.dlr.de/xsd/sumoConfiguration.xsd">

    <input>
        <net-file value="simple_network.net.xml"/>
        <route-files value="random_routes.rou.xml"/>
        <additional-files value="additional.add.xml"/>
    </input>

    <output>
        <summary-output value="output.sumocfg"/>
    </output>

    <time>
        <begin value="0"/>
        <end value="100"/>
    </time>

    <traci_server>
        <remote-port value="58947"/>
    </traci_server>

</sumoConfiguration>
-->

<summary xmlns:xsi="http://www.w3.org/2001/XMLSchema-instance" xsi:noNamespaceSchemaLocation="http://sumo.dlr.de/xsd/summary_file.xsd">
    <step time="0.00" loaded="2" inserted="1" running="1" waiting="0" ended="0" arrived="0" collisions="0" teleports="0" halting="1" stopped="0" meanWaitingTime="0.00" meanTravelTime="-1.00" meanSpeed="0.00" meanSpeedRelative="0.00" duration="1"/>
    <step time="1.00" loaded="218" inserted="4" running="4" waiting="0" ended="0" arrived="0" collisions="0" teleports="0" halting="3" stopped="0" meanWaitingTime="0.00" meanTravelTime="-1.00" meanSpeed="0.56" meanSpeedRelative="0.04" duration="8"/>
    <step time="2.00" loaded="218" inserted="4" running="4" waiting="0" ended="0" arrived="0" collisions="0" teleports="0" halting="0" stopped="0" meanWaitingTime="0.00" meanTravelTime="-1.00" meanSpeed="2.45" meanSpeedRelative="0.18" duration="0"/>
    <step time="3.00" loaded="218" inserted="4" running="4" waiting="0" ended="0" arrived="0" collisions="0" teleports="0" halting="0" stopped="0" meanWaitingTime="0.00" meanTravelTime="-1.00" meanSpeed="4.45" meanSpeedRelative="0.32" duration="0"/>
    <step time="4.00" loaded="218" inserted="9" running="9" waiting="0" ended="0" arrived="0" collisions="0" teleports="0" halting="5" stopped="0" meanWaitingTime="0.00" meanTravelTime="-1.00" meanSpeed="2.84" meanSpeedRelative="0.20" duration="0"/>
    <step time="5.00" loaded="218" inserted="9" running="9" waiting="0" ended="0" arrived="0" collisions="0" teleports="0" halting="0" stopped="0" meanWaitingTime="0.00" meanTravelTime="-1.00" meanSpeed="4.57" meanSpeedRelative="0.33" duration="0"/>
    <step time="6.00" loaded="218" inserted="10" running="10" waiting="1" ended="0" arrived="0" collisions="0" teleports="0" halting="1" stopped="0" meanWaitingTime="0.00" meanTravelTime="-1.00" meanSpeed="5.39" meanSpeedRelative="0.39" duration="1"/>
    <step time="7.00" loaded="218" inserted="12" running="12" waiting="0" ended="0" arrived="0" collisions="0" teleports="0" halting="2" stopped="0" meanWaitingTime="0.08" meanTravelTime="-1.00" meanSpeed="5.54" meanSpeedRelative="0.40" duration="1"/>
    <step time="8.00" loaded="218" inserted="12" running="12" waiting="0" ended="0" arrived="0" collisions="0" teleports="0" halting="0" stopped="0" meanWaitingTime="0.08" meanTravelTime="-1.00" meanSpeed="6.57" meanSpeedRelative="0.47" duration="0"/>
    <step time="9.00" loaded="218" inserted="13" running="13" waiting="1" ended="0" arrived="0" collisions="0" teleports="0" halting="1" stopped="0" meanWaitingTime="0.08" meanTravelTime="-1.00" meanSpeed="7.29" meanSpeedRelative="0.52" duration="0"/>
    <step time="10.00" loaded="218" inserted="15" running="14" waiting="2" ended="1" arrived="1" collisions="0" teleports="0" halting="2" stopped="0" meanWaitingTime="0.07" meanTravelTime="9.00" meanSpeed="6.64" meanSpeedRelative="0.48" duration="0"/>
    <step time="11.00" loaded="218" inserted="17" running="15" waiting="2" ended="2" arrived="2" collisions="0" teleports="0" halting="2" stopped="0" meanWaitingTime="0.06" meanTravelTime="10.00" meanSpeed="6.29" meanSpeedRelative="0.45" duration="1"/>
    <step time="12.00" loaded="218" inserted="20" running="17" waiting="2" ended="3" arrived="3" collisions="0" teleports="0" halting="3" stopped="0" meanWaitingTime="0.20" meanTravelTime="10.33" meanSpeed="5.77" meanSpeedRelative="0.42" duration="0"/>
    <step time="13.00" loaded="218" inserted="20" running="17" waiting="3" ended="3" arrived="3" collisions="0" teleports="0" halting="0" stopped="0" meanWaitingTime="0.20" meanTravelTime="10.33" meanSpeed="6.78" meanSpeedRelative="0.49" duration="0"/>
    <step time="14.00" loaded="218" inserted="22" running="18" waiting="1" ended="4" arrived="4" collisions="0" teleports="0" halting="2" stopped="0" meanWaitingTime="0.45" meanTravelTime="10.25" meanSpeed="6.77" meanSpeedRelative="0.49" duration="1"/>
    <step time="15.00" loaded="218" inserted="24" running="20" waiting="1" ended="4" arrived="4" collisions="0" teleports="0" halting="2" stopped="0" meanWaitingTime="0.42" meanTravelTime="10.25" meanSpeed="6.99" meanSpeedRelative="0.50" duration="1"/>
    <step time="16.00" loaded="218" inserted="25" running="21" waiting="2" ended="4" arrived="4" collisions="0" teleports="0" halting="1" stopped="0" meanWaitingTime="0.40" meanTravelTime="10.25" meanSpeed="7.25" meanSpeedRelative="0.52" duration="0"/>
    <step time="17.00" loaded="218" inserted="28" running="23" waiting="2" ended="5" arrived="5" collisions="0" teleports="0" halting="3" stopped="0" meanWaitingTime="0.39" meanTravelTime="11.40" meanSpeed="6.88" meanSpeedRelative="0.50" duration="1"/>
    <step time="18.00" loaded="218" inserted="29" running="23" waiting="2" ended="6" arrived="6" collisions="0" teleports="0" halting="1" stopped="0" meanWaitingTime="0.55" meanTravelTime="11.33" meanSpeed="7.08" meanSpeedRelative="0.51" duration="1"/>
    <step time="19.00" loaded="218" inserted="32" running="25" waiting="1" ended="7" arrived="7" collisions="0" teleports="0" halting="3" stopped="0" meanWaitingTime="0.59" meanTravelTime="11.86" meanSpeed="6.87" meanSpeedRelative="0.49" duration="0"/>
    <step time="20.00" loaded="218" inserted="32" running="25" waiting="2" ended="7" arrived="7" collisions="0" teleports="0" halting="0" stopped="0" meanWaitingTime="0.59" meanTravelTime="11.86" meanSpeed="7.92" meanSpeedRelative="0.57" duration="1"/>
    <step time="21.00" loaded="218" inserted="33" running="22" waiting="1" ended="11" arrived="11" collisions="0" teleports="0" halting="1" stopped="0" meanWaitingTime="0.64" meanTravelTime="12.73" meanSpeed="7.36" meanSpeedRelative="0.53" duration="1"/>
    <step time="22.00" loaded="218" inserted="33" running="21" waiting="2" ended="12" arrived="12" collisions="0" teleports="0" halting="0" stopped="0" meanWaitingTime="0.64" meanTravelTime="12.92" meanSpeed="8.04" meanSpeedRelative="0.58" duration="0"/>
    <step time="23.00" loaded="218" inserted="35" running="22" waiting="2" ended="13" arrived="13" collisions="0" teleports="0" halting="2" stopped="0" meanWaitingTime="0.69" meanTravelTime="12.77" meanSpeed="7.19" meanSpeedRelative="0.52" duration="0"/>
    <step time="24.00" loaded="218" inserted="38" running="24" waiting="1" ended="14" arrived="14" collisions="0" teleports="0" halting="3" stopped="0" meanWaitingTime="0.66" meanTravelTime="12.71" meanSpeed="6.49" meanSpeedRelative="0.47" duration="1"/>
    <step time="25.00" loaded="218" inserted="38" running="23" waiting="3" ended="15" arrived="15" collisions="0" teleports="0" halting="0" stopped="0" meanWaitingTime="0.66" meanTravelTime="12.60" meanSpeed="6.86" meanSpeedRelative="0.49" duration="0"/>
    <step time="26.00" loaded="218" inserted="39" running="22" waiting="3" ended="17" arrived="17" collisions="0" teleports="0" halting="1" stopped="0" meanWaitingTime="0.64" meanTravelTime="13.18" meanSpeed="7.09" meanSpeedRelative="0.51" duration="1"/>
    <step time="27.00" loaded="218" inserted="41" running="21" waiting="5" ended="20" arrived="20" collisions="0" teleports="0" halting="2" stopped="0" meanWaitingTime="0.61" meanTravelTime="13.40" meanSpeed="6.89" meanSpeedRelative="0.50" duration="0"/>
    <step time="28.00" loaded="218" inserted="44" running="23" waiting="4" ended="21" arrived="21" collisions="0" teleports="0" halting="3" stopped="0" meanWaitingTime="0.77" meanTravelTime="13.33" meanSpeed="6.76" meanSpeedRelative="0.49" duration="0"/>
    <step time="29.00" loaded="218" inserted="46" running="21" waiting="3" ended="25" arrived="25" collisions="0" teleports="0" halting="2" stopped="0" meanWaitingTime="0.87" meanTravelTime="13.60" meanSpeed="6.16" meanSpeedRelative="0.44" duration="1"/>
    <step time="30.00" loaded="218" inserted="46" running="21" waiting="3" ended="25" arrived="25" collisions="0" teleports="0" halting="0" stopped="0" meanWaitingTime="0.87" meanTravelTime="13.60" meanSpeed="6.91" meanSpeedRelative="0.50" duration="0"/>
    <step time="31.00" loaded="218" inserted="46" running="21" waiting="3" ended="25" arrived="25" collisions="0" teleports="0" halting="0" stopped="0" meanWaitingTime="0.87" meanTravelTime="13.60" meanSpeed="7.79" meanSpeedRelative="0.56" duration="0"/>
    <step time="32.00" loaded="218" inserted="49" running="23" waiting="2" ended="26" arrived="26" collisions="0" teleports="0" halting="4" stopped="0" meanWaitingTime="0.88" meanTravelTime="13.50" meanSpeed="6.97" meanSpeedRelative="0.50" duration="0"/>
    <step time="33.00" loaded="218" inserted="49" running="23" waiting="3" ended="26" arrived="26" collisions="0" teleports="0" halting="0" stopped="0" meanWaitingTime="0.88" meanTravelTime="13.50" meanSpeed="7.47" meanSpeedRelative="0.54" duration="0"/>
    <step time="34.00" loaded="218" inserted="49" running="23" waiting="3" ended="26" arrived="26" collisions="0" teleports="0" halting="0" stopped="0" meanWaitingTime="0.88" meanTravelTime="13.50" meanSpeed="7.20" meanSpeedRelative="0.52" duration="1"/>
    <step time="35.00" loaded="218" inserted="49" running="23" waiting="3" ended="26" arrived="26" collisions="0" teleports="0" halting="0" stopped="0" meanWaitingTime="0.88" meanTravelTime="13.50" meanSpeed="7.18" meanSpeedRelative="0.52" duration="1"/>
    <step time="36.00" loaded="218" inserted="51" running="24" waiting="2" ended="27" arrived="27" collisions="0" teleports="0" halting="3" stopped="0" meanWaitingTime="0.90" meanTravelTime="13.78" meanSpeed="7.03" meanSpeedRelative="0.51" duration="0"/>
    <step time="37.00" loaded="218" inserted="53" running="24" waiting="3" ended="29" arrived="29" collisions="0" teleports="0" halting="3" stopped="0" meanWaitingTime="0.87" meanTravelTime="14.52" meanSpeed="6.85" meanSpeedRelative="0.49" duration="1"/>
    <step time="38.00" loaded="218" inserted="54" running="24" waiting="2" ended="30" arrived="30" collisions="0" teleports="0" halting="1" stopped="0" meanWaitingTime="1.06" meanTravelTime="14.53" meanSpeed="6.73" meanSpeedRelative="0.48" duration="1"/>
    <step time="39.00" loaded="218" inserted="55" running="23" waiting="1" ended="32" arrived="32" collisions="0" teleports="0" halting="1" stopped="0" meanWaitingTime="1.07" meanTravelTime="14.72" meanSpeed="6.48" meanSpeedRelative="0.47" duration="0"/>
    <step time="40.00" loaded="218" inserted="55" running="20" waiting="1" ended="35" arrived="35" collisions="0" teleports="0" halting="0" stopped="0" meanWaitingTime="1.07" meanTravelTime="14.86" meanSpeed="6.71" meanSpeedRelative="0.48" duration="0"/>
    <step time="41.00" loaded="218" inserted="55" running="18" waiting="1" ended="37" arrived="37" collisions="0" teleports="0" halting="0" stopped="0" meanWaitingTime="1.07" meanTravelTime="15.16" meanSpeed="8.01" meanSpeedRelative="0.58" duration="0"/>
    <step time="42.00" loaded="218" inserted="55" running="17" waiting="1" ended="38" arrived="38" collisions="0" teleports="0" halting="0" stopped="0" meanWaitingTime="1.07" meanTravelTime="15.37" meanSpeed="8.82" meanSpeedRelative="0.64" duration="1"/>
    <step time="43.00" loaded="218" inserted="57" running="18" waiting="1" ended="39" arrived="39" collisions="0" teleports="0" halting="2" stopped="0" meanWaitingTime="1.04" meanTravelTime="15.33" meanSpeed="8.13" meanSpeedRelative="0.59" duration="1"/>
    <step time="44.00" loaded="218" inserted="59" running="18" waiting="0" ended="41" arrived="41" collisions="0" teleports="0" halting="2" stopped="0" meanWaitingTime="1.27" meanTravelTime="15.27" meanSpeed="7.20" meanSpeedRelative="0.52" duration="0"/>
    <step time="45.00" loaded="218" inserted="59" running="17" waiting="1" ended="42" arrived="42" collisions="0" teleports="0" halting="1" stopped="0" meanWaitingTime="1.27" meanTravelTime="15.31" meanSpeed="6.82" meanSpeedRelative="0.49" duration="0"/>
    <step time="46.00" loaded="218" inserted="60" running="16" waiting="2" ended="44" arrived="44" collisions="0" teleports="0" halting="1" stopped="0" meanWaitingTime="1.25" meanTravelTime="15.36" meanSpeed="6.60" meanSpeedRelative="0.48" duration="1"/>
    <step time="47.00" loaded="218" inserted="62" running="18" waiting="2" ended="44" arrived="44" collisions="0" teleports="0" halting="2" stopped="0" meanWaitingTime="1.24" meanTravelTime="15.36" meanSpeed="6.67" meanSpeedRelative="0.48" duration="1"/>
    <step time="48.00" loaded="218" inserted="64" running="17" waiting="2" ended="47" arrived="47" collisions="0" teleports="0" halting="2" stopped="0" meanWaitingTime="1.23" meanTravelTime="15.49" meanSpeed="6.12" meanSpeedRelative="0.44" duration="0"/>
    <step time="49.00" loaded="218" inserted="65" running="17" waiting="2" ended="48" arrived="48" collisions="0" teleports="0" halting="1" stopped="0" meanWaitingTime="1.22" meanTravelTime="15.62" meanSpeed="6.64" meanSpeedRelative="0.48" duration="0"/>
    <step time="50.00" loaded="218" inserted="66" running="17" waiting="2" ended="49" arrived="49" collisions="0" teleports="0" halting="1" stopped="0" meanWaitingTime="1.23" meanTravelTime="15.67" meanSpeed="6.99" meanSpeedRelative="0.50" duration="1"/>
    <step time="51.00" loaded="218" inserted="68" running="18" waiting="0" ended="50" arrived="50" collisions="0" teleports="0" halting="2" stopped="0" meanWaitingTime="1.26" meanTravelTime="15.74" meanSpeed="6.98" meanSpeedRelative="0.50" duration="0"/>
    <step time="52.00" loaded="218" inserted="68" running="18" waiting="0" ended="50" arrived="50" collisions="0" teleports="0" halting="0" stopped="0" meanWaitingTime="1.26" meanTravelTime="15.74" meanSpeed="8.04" meanSpeedRelative="0.58" duration="0"/>
    <step time="53.00" loaded="218" inserted="68" running="17" waiting="0" ended="51" arrived="51" collisions="0" teleports="0" halting="0" stopped="0" meanWaitingTime="1.26" meanTravelTime="15.75" meanSpeed="7.89" meanSpeedRelative="0.57" duration="0"/>
    <step time="54.00" loaded="218" inserted="68" running="14" waiting="0" ended="54" arrived="54" collisions="0" teleports="0" halting="0" stopped="0" meanWaitingTime="1.26" meanTravelTime="15.98" meanSpeed="7.42" meanSpeedRelative="0.53" duration="1"/>
    <step time="55.00" loaded="218" inserted="70" running="16" waiting="0" ended="54" arrived="54" collisions="0" teleports="0" halting="2" stopped="0" meanWaitingTime="1.23" meanTravelTime="15.98" meanSpeed="7.12" meanSpeedRelative="0.51" duration="1"/>
    <step time="56.00" loaded="218" inserted="70" running="16" waiting="0" ended="54" arrived="54" collisions="0" teleports="0" halting="0" stopped="0" meanWaitingTime="1.23" meanTravelTime="15.98" meanSpeed="7.82" meanSpeedRelative="0.56" duration="0"/>
    <step time="57.00" loaded="218" inserted="70" running="16" waiting="1" ended="54" arrived="54" collisions="0" teleports="0" halting="0" stopped="0" meanWaitingTime="1.23" meanTravelTime="15.98" meanSpeed="7.89" meanSpeedRelative="0.57" duration="0"/>
    <step time="58.00" loaded="218" inserted="72" running="16" waiting="0" ended="56" arrived="56" collisions="0" teleports="0" halting="2" stopped="0" meanWaitingTime="1.21" meanTravelTime="16.04" meanSpeed="6.35" meanSpeedRelative="0.46" duration="0"/>
    <step time="59.00" loaded="218" inserted="72" running="14" waiting="0" ended="58" arrived="58" collisions="0" teleports="0" halting="0" stopped="0" meanWaitingTime="1.21" meanTravelTime="15.95" meanSpeed="6.73" meanSpeedRelative="0.48" duration="0"/>
    <step time="60.00" loaded="218" inserted="73" running="14" waiting="0" ended="59" arrived="59" collisions="0" teleports="0" halting="1" stopped="0" meanWaitingTime="1.19" meanTravelTime="15.92" meanSpeed="7.43" meanSpeedRelative="0.53" duration="1"/>
    <step time="61.00" loaded="218" inserted="75" running="16" waiting="0" ended="59" arrived="59" collisions="0" teleports="0" halting="2" stopped="0" meanWaitingTime="1.16" meanTravelTime="15.92" meanSpeed="7.06" meanSpeedRelative="0.51" duration="0"/>
    <step time="62.00" loaded="218" inserted="75" running="15" waiting="4" ended="60" arrived="60" collisions="0" teleports="0" halting="0" stopped="0" meanWaitingTime="1.16" meanTravelTime="15.95" meanSpeed="7.30" meanSpeedRelative="0.53" duration="0"/>
    <step time="63.00" loaded="218" inserted="78" running="14" waiting="2" ended="64" arrived="64" collisions="0" teleports="0" halting="3" stopped="0" meanWaitingTime="1.15" meanTravelTime="15.83" meanSpeed="5.47" meanSpeedRelative="0.39" duration="1"/>
    <step time="64.00" loaded="218" inserted="81" running="17" waiting="0" ended="64" arrived="64" collisions="0" teleports="0" halting="3" stopped="0" meanWaitingTime="1.15" meanTravelTime="15.83" meanSpeed="5.68" meanSpeedRelative="0.41" duration="1"/>
    <step time="65.00" loaded="218" inserted="83" running="18" waiting="0" ended="65" arrived="65" collisions="0" teleports="0" halting="2" stopped="0" meanWaitingTime="1.12" meanTravelTime="15.91" meanSpeed="6.34" meanSpeedRelative="0.46" duration="0"/>
    <step time="66.00" loaded="218" inserted="83" running="18" waiting="1" ended="65" arrived="65" collisions="0" teleports="0" halting="0" stopped="0" meanWaitingTime="1.12" meanTravelTime="15.91" meanSpeed="7.70" meanSpeedRelative="0.55" duration="0"/>
    <step time="67.00" loaded="218" inserted="83" running="17" waiting="2" ended="66" arrived="66" collisions="0" teleports="0" halting="0" stopped="0" meanWaitingTime="1.12" meanTravelTime="15.97" meanSpeed="8.05" meanSpeedRelative="0.58" duration="0"/>
    <step time="68.00" loaded="218" inserted="85" running="18" waiting="1" ended="67" arrived="67" collisions="0" teleports="0" halting="2" stopped="0" meanWaitingTime="1.11" meanTravelTime="16.01" meanSpeed="7.47" meanSpeedRelative="0.54" duration="1"/>
    <step time="69.00" loaded="218" inserted="86" running="19" waiting="1" ended="67" arrived="67" collisions="0" teleports="0" halting="1" stopped="0" meanWaitingTime="1.09" meanTravelTime="16.01" meanSpeed="7.15" meanSpeedRelative="0.51" duration="1"/>
    <step time="70.00" loaded="218" inserted="88" running="20" waiting="0" ended="68" arrived="68" collisions="0" teleports="0" halting="2" stopped="0" meanWaitingTime="1.11" meanTravelTime="16.06" meanSpeed="6.50" meanSpeedRelative="0.47" duration="0"/>
    <step time="71.00" loaded="218" inserted="89" running="20" waiting="0" ended="69" arrived="69" collisions="0" teleports="0" halting="1" stopped="0" meanWaitingTime="1.10" meanTravelTime="16.06" meanSpeed="6.11" meanSpeedRelative="0.44" duration="0"/>
    <step time="72.00" loaded="218" inserted="90" running="20" waiting="1" ended="70" arrived="70" collisions="0" teleports="0" halting="2" stopped="0" meanWaitingTime="1.09" meanTravelTime="16.07" meanSpeed="6.21" meanSpeedRelative="0.45" duration="0"/>
    <step time="73.00" loaded="218" inserted="90" running="20" waiting="1" ended="70" arrived="70" collisions="0" teleports="0" halting="0" stopped="0" meanWaitingTime="1.09" meanTravelTime="16.07" meanSpeed="8.09" meanSpeedRelative="0.58" duration="1"/>
    <step time="74.00" loaded="218" inserted="91" running="20" waiting="1" ended="71" arrived="71" collisions="0" teleports="0" halting="1" stopped="0" meanWaitingTime="1.10" meanTravelTime="15.99" meanSpeed="8.45" meanSpeedRelative="0.61" duration="0"/>
    <step time="75.00" loaded="218" inserted="91" running="19" waiting="1" ended="72" arrived="72" collisions="0" teleports="0" halting="0" stopped="0" meanWaitingTime="1.10" meanTravelTime="15.93" meanSpeed="8.13" meanSpeedRelative="0.59" duration="1"/>
    <step time="76.00" loaded="218" inserted="93" running="20" waiting="1" ended="73" arrived="73" collisions="0" teleports="0" halting="2" stopped="0" meanWaitingTime="1.08" meanTravelTime="15.96" meanSpeed="7.65" meanSpeedRelative="0.55" duration="0"/>
    <step time="77.00" loaded="218" inserted="96" running="22" waiting="2" ended="74" arrived="74" collisions="0" teleports="0" halting="3" stopped="0" meanWaitingTime="1.04" meanTravelTime="15.96" meanSpeed="6.73" meanSpeedRelative="0.48" duration="1"/>
    <step time="78.00" loaded="218" inserted="97" running="22" waiting="2" ended="75" arrived="75" collisions="0" teleports="0" halting="1" stopped="0" meanWaitingTime="1.03" meanTravelTime="15.93" meanSpeed="7.16" meanSpeedRelative="0.52" duration="0"/>
    <step time="79.00" loaded="218" inserted="99" running="23" waiting="2" ended="76" arrived="76" collisions="0" teleports="0" halting="2" stopped="0" meanWaitingTime="1.06" meanTravelTime="15.87" meanSpeed="7.35" meanSpeedRelative="0.53" duration="0"/>
    <step time="80.00" loaded="218" inserted="99" running="22" waiting="2" ended="77" arrived="77" collisions="0" teleports="0" halting="0" stopped="0" meanWaitingTime="1.06" meanTravelTime="15.88" meanSpeed="8.11" meanSpeedRelative="0.58" duration="1"/>
    <step time="81.00" loaded="218" inserted="99" running="17" waiting="2" ended="82" arrived="82" collisions="0" teleports="0" halting="0" stopped="0" meanWaitingTime="1.06" meanTravelTime="16.00" meanSpeed="8.16" meanSpeedRelative="0.59" duration="1"/>
    <step time="82.00" loaded="218" inserted="101" running="18" waiting="0" ended="83" arrived="83" collisions="0" teleports="0" halting="2" stopped="0" meanWaitingTime="1.12" meanTravelTime="16.07" meanSpeed="7.58" meanSpeedRelative="0.55" duration="1"/>
    <step time="83.00" loaded="218" inserted="101" running="18" waiting="0" ended="83" arrived="83" collisions="0" teleports="0" halting="0" stopped="0" meanWaitingTime="1.12" meanTravelTime="16.07" meanSpeed="7.66" meanSpeedRelative="0.55" duration="0"/>
    <step time="84.00" loaded="218" inserted="101" running="17" waiting="1" ended="84" arrived="84" collisions="0" teleports="0" halting="0" stopped="0" meanWaitingTime="1.12" meanTravelTime="16.12" meanSpeed="7.28" meanSpeedRelative="0.52" duration="1"/>
    <step time="85.00" loaded="218" inserted="101" running="16" waiting="1" ended="85" arrived="85" collisions="0" teleports="0" halting="0" stopped="0" meanWaitingTime="1.12" meanTravelTime="16.11" meanSpeed="7.07" meanSpeedRelative="0.51" duration="0"/>
    <step time="86.00" loaded="218" inserted="101" running="16" waiting="1" ended="85" arrived="85" collisions="0" teleports="0" halting="0" stopped="0" meanWaitingTime="1.12" meanTravelTime="16.11" meanSpeed="8.07" meanSpeedRelative="0.58" duration="0"/>
    <step time="87.00" loaded="218" inserted="101" running="16" waiting="1" ended="85" arrived="85" collisions="0" teleports="0" halting="0" stopped="0" meanWaitingTime="1.12" meanTravelTime="16.11" meanSpeed="9.14" meanSpeedRelative="0.66" duration="0"/>
    <step time="88.00" loaded="218" inserted="101" running="14" waiting="1" ended="87" arrived="87" collisions="0" teleports="0" halting="0" stopped="0" meanWaitingTime="1.12" meanTravelTime="15.99" meanSpeed="9.46" meanSpeedRelative="0.68" duration="0"/>
    <step time="89.00" loaded="218" inserted="102" running="14" waiting="1" ended="88" arrived="88" collisions="0" teleports="0" halting="1" stopped="0" meanWaitingTime="1.11" meanTravelTime="16.05" meanSpeed="8.58" meanSpeedRelative="0.62" duration="1"/>
    <step time="90.00" loaded="218" inserted="102" running="13" waiting="3" ended="89" arrived="89" collisions="0" teleports="0" halting="0" stopped="0" meanWaitingTime="1.11" meanTravelTime="16.08" meanSpeed="8.02" meanSpeedRelative="0.58" duration="0"/>
    <step time="91.00" loaded="218" inserted="103" running="12" waiting="3" ended="91" arrived="91" collisions="0" teleports="0" halting="1" stopped="0" meanWaitingTime="1.10" meanTravelTime="16.16" meanSpeed="6.72" meanSpeedRelative="0.48" duration="0"/>
    <step time="92.00" loaded="218" inserted="104" running="12" waiting="2" ended="92" arrived="92" collisions="0" teleports="0" halting="1" stopped="0" meanWaitingTime="1.16" meanTravelTime="16.18" meanSpeed="6.98" meanSpeedRelative="0.50" duration="0"/>
    <step time="93.00" loaded="218" inserted="105" running="12" waiting="2" ended="93" arrived="93" collisions="0" teleports="0" halting="1" stopped="0" meanWaitingTime="1.18" meanTravelTime="16.13" meanSpeed="7.64" meanSpeedRelative="0.55" duration="0"/>
    <step time="94.00" loaded="218" inserted="105" running="10" waiting="2" ended="95" arrived="95" collisions="0" teleports="0" halting="0" stopped="0" meanWaitingTime="1.18" meanTravelTime="16.23" meanSpeed="8.68" meanSpeedRelative="0.62" duration="0"/>
    <step time="95.00" loaded="218" inserted="108" running="10" waiting="0" ended="98" arrived="98" collisions="0" teleports="0" halting="3" stopped="0" meanWaitingTime="1.21" meanTravelTime="16.31" meanSpeed="5.68" meanSpeedRelative="0.41" duration="1"/>
    <step time="96.00" loaded="218" inserted="110" running="12" waiting="1" ended="98" arrived="98" collisions="0" teleports="0" halting="2" stopped="0" meanWaitingTime="1.19" meanTravelTime="16.31" meanSpeed="5.87" meanSpeedRelative="0.42" duration="0"/>
    <step time="97.00" loaded="218" inserted="110" running="10" waiting="1" ended="100" arrived="100" collisions="0" teleports="0" halting="0" stopped="0" meanWaitingTime="1.19" meanTravelTime="16.31" meanSpeed="5.46" meanSpeedRelative="0.39" duration="0"/>
    <step time="98.00" loaded="218" inserted="112" running="12" waiting="2" ended="100" arrived="100" collisions="0" teleports="0" halting="2" stopped="0" meanWaitingTime="1.17" meanTravelTime="16.31" meanSpeed="5.73" meanSpeedRelative="0.41" duration="0"/>
    <step time="99.00" loaded="218" inserted="112" running="12" waiting="2" ended="100" arrived="100" collisions="0" teleports="0" halting="0" stopped="0" meanWaitingTime="1.17" meanTravelTime="16.31" meanSpeed="6.53" meanSpeedRelative="0.47" duration="0"/>
    <step time="100.00" loaded="218" inserted="116" running="16" waiting="1" ended="100" arrived="100" collisions="0" teleports="0" halting="4" stopped="0" meanWaitingTime="1.16" meanTravelTime="16.31" meanSpeed="5.61" meanSpeedRelative="0.40" duration="0"/>
    <step time="101.00" loaded="218" inserted="118" running="17" waiting="0" ended="101" arrived="101" collisions="0" teleports="0" halting="2" stopped="0" meanWaitingTime="1.17" meanTravelTime="16.40" meanSpeed="5.44" meanSpeedRelative="0.39" duration="1"/>
    <step time="102.00" loaded="218" inserted="119" running="18" waiting="0" ended="101" arrived="101" collisions="0" teleports="0" halting="1" stopped="0" meanWaitingTime="1.16" meanTravelTime="16.40" meanSpeed="6.17" meanSpeedRelative="0.44" duration="1"/>
    <step time="103.00" loaded="218" inserted="121" running="20" waiting="1" ended="101" arrived="101" collisions="0" teleports="0" halting="2" stopped="0" meanWaitingTime="1.14" meanTravelTime="16.40" meanSpeed="6.33" meanSpeedRelative="0.46" duration="0"/>
    <step time="104.00" loaded="218" inserted="122" running="21" waiting="1" ended="101" arrived="101" collisions="0" teleports="0" halting="1" stopped="0" meanWaitingTime="1.14" meanTravelTime="16.40" meanSpeed="7.06" meanSpeedRelative="0.51" duration="1"/>
    <step time="105.00" loaded="218" inserted="123" running="22" waiting="1" ended="101" arrived="101" collisions="0" teleports="0" halting="1" stopped="0" meanWaitingTime="1.13" meanTravelTime="16.40" meanSpeed="7.60" meanSpeedRelative="0.55" duration="1"/>
    <step time="106.00" loaded="218" inserted="124" running="22" waiting="0" ended="102" arrived="102" collisions="0" teleports="0" halting="1" stopped="0" meanWaitingTime="1.14" meanTravelTime="16.34" meanSpeed="7.79" meanSpeedRelative="0.56" duration="1"/>
    <step time="107.00" loaded="218" inserted="124" running="22" waiting="0" ended="102" arrived="102" collisions="0" teleports="0" halting="0" stopped="0" meanWaitingTime="1.14" meanTravelTime="16.34" meanSpeed="8.64" meanSpeedRelative="0.62" duration="0"/>
    <step time="108.00" loaded="218" inserted="125" running="22" waiting="1" ended="103" arrived="103" collisions="0" teleports="0" halting="1" stopped="0" meanWaitingTime="1.13" meanTravelTime="16.37" meanSpeed="8.60" meanSpeedRelative="0.62" duration="0"/>
    <step time="109.00" loaded="218" inserted="125" running="20" waiting="2" ended="105" arrived="105" collisions="0" teleports="0" halting="0" stopped="0" meanWaitingTime="1.13" meanTravelTime="16.37" meanSpeed="8.96" meanSpeedRelative="0.65" duration="0"/>
    <step time="110.00" loaded="218" inserted="125" running="20" waiting="2" ended="105" arrived="105" collisions="0" teleports="0" halting="0" stopped="0" meanWaitingTime="1.13" meanTravelTime="16.37" meanSpeed="8.96" meanSpeedRelative="0.64" duration="0"/>
    <step time="111.00" loaded="218" inserted="126" running="19" waiting="1" ended="107" arrived="107" collisions="0" teleports="0" halting="1" stopped="0" meanWaitingTime="1.13" meanTravelTime="16.27" meanSpeed="8.13" meanSpeedRelative="0.59" duration="0"/>
    <step time="112.00" loaded="218" inserted="126" running="17" waiting="2" ended="109" arrived="109" collisions="0" teleports="0" halting="0" stopped="0" meanWaitingTime="1.13" meanTravelTime="16.23" meanSpeed="7.89" meanSpeedRelative="0.57" duration="0"/>
    <step time="113.00" loaded="218" inserted="128" running="16" waiting="2" ended="112" arrived="112" collisions="0" teleports="0" halting="2" stopped="0" meanWaitingTime="1.12" meanTravelTime="16.23" meanSpeed="7.17" meanSpeedRelative="0.52" duration="0"/>