<?xml version="1.0" encoding="UTF-8"?>

<!-- generated on 2024-12-18 15:52:19 by Eclipse SUMO GUI Version v1_21_0+1300-66ed36aff3d
<sumoConfiguration xmlns:xsi="http://www.w3.org/2001/XMLSchema-instance" xsi:noNamespaceSchemaLocation="http://sumo.dlr.de/xsd/sumoConfiguration.xsd">

    <input>
        <net-file value="simple_network.net.xml"/>
        <route-files value="random_routes.rou.xml"/>
        <additional-files value="additional.add.xml"/>
    </input>

    <output>
        <summary-output value="output.sumocfg"/>
    </output>

    <time>
        <begin value="0"/>
        <end value="100"/>
    </time>

    <traci_server>
        <remote-port value="33831"/>
    </traci_server>

</sumoConfiguration>
-->

<summary xmlns:xsi="http://www.w3.org/2001/XMLSchema-instance" xsi:noNamespaceSchemaLocation="http://sumo.dlr.de/xsd/summary_file.xsd">
    <step time="0.00" loaded="2" inserted="1" running="1" waiting="0" ended="0" arrived="0" collisions="0" teleports="0" halting="1" stopped="0" meanWaitingTime="0.00" meanTravelTime="-1.00" meanSpeed="0.00" meanSpeedRelative="0.00" duration="1"/>
    <step time="1.00" loaded="191" inserted="2" running="2" waiting="0" ended="0" arrived="0" collisions="0" teleports="0" halting="1" stopped="0" meanWaitingTime="0.00" meanTravelTime="-1.00" meanSpeed="0.96" meanSpeedRelative="0.07" duration="8"/>
    <step time="2.00" loaded="191" inserted="3" running="3" waiting="0" ended="0" arrived="0" collisions="0" teleports="0" halting="1" stopped="0" meanWaitingTime="0.00" meanTravelTime="-1.00" meanSpeed="1.79" meanSpeedRelative="0.13" duration="0"/>
    <step time="3.00" loaded="191" inserted="5" running="5" waiting="0" ended="0" arrived="0" collisions="0" teleports="0" halting="2" stopped="0" meanWaitingTime="0.00" meanTravelTime="-1.00" meanSpeed="2.32" meanSpeedRelative="0.17" duration="0"/>
    <step time="4.00" loaded="191" inserted="6" running="6" waiting="0" ended="0" arrived="0" collisions="0" teleports="0" halting="1" stopped="0" meanWaitingTime="0.00" meanTravelTime="-1.00" meanSpeed="3.45" meanSpeedRelative="0.25" duration="0"/>
    <step time="5.00" loaded="191" inserted="8" running="8" waiting="0" ended="0" arrived="0" collisions="0" teleports="0" halting="2" stopped="0" meanWaitingTime="0.00" meanTravelTime="-1.00" meanSpeed="4.05" meanSpeedRelative="0.29" duration="0"/>
    <step time="6.00" loaded="191" inserted="10" running="10" waiting="0" ended="0" arrived="0" collisions="0" teleports="0" halting="2" stopped="0" meanWaitingTime="0.00" meanTravelTime="-1.00" meanSpeed="4.71" meanSpeedRelative="0.34" duration="1"/>
    <step time="7.00" loaded="191" inserted="12" running="12" waiting="0" ended="0" arrived="0" collisions="0" teleports="0" halting="2" stopped="0" meanWaitingTime="0.00" meanTravelTime="-1.00" meanSpeed="4.90" meanSpeedRelative="0.35" duration="0"/>
    <step time="8.00" loaded="191" inserted="13" running="13" waiting="1" ended="0" arrived="0" collisions="0" teleports="0" halting="1" stopped="0" meanWaitingTime="0.00" meanTravelTime="-1.00" meanSpeed="5.46" meanSpeedRelative="0.39" duration="0"/>
    <step time="9.00" loaded="191" inserted="15" running="15" waiting="1" ended="0" arrived="0" collisions="0" teleports="0" halting="2" stopped="0" meanWaitingTime="0.00" meanTravelTime="-1.00" meanSpeed="6.22" meanSpeedRelative="0.45" duration="0"/>
    <step time="10.00" loaded="191" inserted="16" running="15" waiting="1" ended="1" arrived="1" collisions="0" teleports="0" halting="1" stopped="0" meanWaitingTime="0.00" meanTravelTime="10.00" meanSpeed="6.74" meanSpeedRelative="0.49" duration="0"/>
    <step time="11.00" loaded="191" inserted="18" running="17" waiting="0" ended="1" arrived="1" collisions="0" teleports="0" halting="2" stopped="0" meanWaitingTime="0.17" meanTravelTime="10.00" meanSpeed="6.70" meanSpeedRelative="0.48" duration="0"/>
    <step time="12.00" loaded="191" inserted="18" running="16" waiting="0" ended="2" arrived="2" collisions="0" teleports="0" halting="0" stopped="0" meanWaitingTime="0.17" meanTravelTime="10.50" meanSpeed="7.63" meanSpeedRelative="0.55" duration="0"/>
    <step time="13.00" loaded="191" inserted="18" running="14" waiting="0" ended="4" arrived="4" collisions="0" teleports="0" halting="1" stopped="0" meanWaitingTime="0.17" meanTravelTime="10.25" meanSpeed="8.01" meanSpeedRelative="0.58" duration="0"/>
    <step time="14.00" loaded="191" inserted="19" running="15" waiting="0" ended="4" arrived="4" collisions="0" teleports="0" halting="1" stopped="0" meanWaitingTime="0.16" meanTravelTime="10.25" meanSpeed="8.78" meanSpeedRelative="0.63" duration="1"/>
    <step time="15.00" loaded="191" inserted="21" running="17" waiting="1" ended="4" arrived="4" collisions="0" teleports="0" halting="2" stopped="0" meanWaitingTime="0.14" meanTravelTime="10.25" meanSpeed="8.40" meanSpeedRelative="0.60" duration="0"/>
    <step time="16.00" loaded="191" inserted="21" running="15" waiting="1" ended="6" arrived="6" collisions="0" teleports="0" halting="0" stopped="0" meanWaitingTime="0.14" meanTravelTime="10.33" meanSpeed="7.92" meanSpeedRelative="0.57" duration="0"/>
    <step time="17.00" loaded="191" inserted="23" running="15" waiting="1" ended="8" arrived="8" collisions="0" teleports="0" halting="2" stopped="0" meanWaitingTime="0.13" meanTravelTime="11.25" meanSpeed="6.19" meanSpeedRelative="0.45" duration="0"/>
    <step time="18.00" loaded="191" inserted="23" running="15" waiting="1" ended="8" arrived="8" collisions="0" teleports="0" halting="0" stopped="0" meanWaitingTime="0.13" meanTravelTime="11.25" meanSpeed="7.06" meanSpeedRelative="0.51" duration="1"/>
    <step time="19.00" loaded="191" inserted="23" running="14" waiting="1" ended="9" arrived="9" collisions="0" teleports="0" halting="0" stopped="0" meanWaitingTime="0.13" meanTravelTime="11.11" meanSpeed="7.36" meanSpeedRelative="0.53" duration="1"/>
    <step time="20.00" loaded="191" inserted="25" running="16" waiting="1" ended="9" arrived="9" collisions="0" teleports="0" halting="2" stopped="0" meanWaitingTime="0.32" meanTravelTime="11.11" meanSpeed="7.36" meanSpeedRelative="0.53" duration="0"/>
    <step time="21.00" loaded="191" inserted="26" running="16" waiting="0" ended="10" arrived="10" collisions="0" teleports="0" halting="1" stopped="0" meanWaitingTime="0.35" meanTravelTime="11.60" meanSpeed="7.45" meanSpeedRelative="0.54" duration="0"/>
    <step time="22.00" loaded="191" inserted="28" running="17" waiting="0" ended="11" arrived="11" collisions="0" teleports="0" halting="2" stopped="0" meanWaitingTime="0.32" meanTravelTime="11.73" meanSpeed="7.50" meanSpeedRelative="0.54" duration="1"/>
    <step time="23.00" loaded="191" inserted="30" running="18" waiting="1" ended="12" arrived="12" collisions="0" teleports="0" halting="2" stopped="0" meanWaitingTime="0.30" meanTravelTime="12.08" meanSpeed="7.69" meanSpeedRelative="0.55" duration="1"/>
    <step time="24.00" loaded="191" inserted="33" running="19" waiting="1" ended="14" arrived="14" collisions="0" teleports="0" halting="3" stopped="0" meanWaitingTime="0.27" meanTravelTime="12.36" meanSpeed="6.85" meanSpeedRelative="0.49" duration="0"/>
    <step time="25.00" loaded="191" inserted="33" running="18" waiting="2" ended="15" arrived="15" collisions="0" teleports="0" halting="0" stopped="0" meanWaitingTime="0.27" meanTravelTime="12.47" meanSpeed="7.62" meanSpeedRelative="0.55" duration="0"/>
    <step time="26.00" loaded="191" inserted="36" running="19" waiting="1" ended="17" arrived="17" collisions="0" teleports="0" halting="3" stopped="0" meanWaitingTime="0.33" meanTravelTime="12.41" meanSpeed="6.77" meanSpeedRelative="0.49" duration="1"/>
    <step time="27.00" loaded="191" inserted="37" running="18" waiting="2" ended="19" arrived="19" collisions="0" teleports="0" halting="1" stopped="0" meanWaitingTime="0.32" meanTravelTime="13.05" meanSpeed="6.38" meanSpeedRelative="0.46" duration="1"/>
    <step time="28.00" loaded="191" inserted="39" running="19" waiting="1" ended="20" arrived="20" collisions="0" teleports="0" halting="2" stopped="0" meanWaitingTime="0.33" meanTravelTime="13.05" meanSpeed="6.01" meanSpeedRelative="0.43" duration="0"/>
    <step time="29.00" loaded="191" inserted="39" running="18" waiting="1" ended="21" arrived="21" collisions="0" teleports="0" halting="0" stopped="0" meanWaitingTime="0.33" meanTravelTime="13.43" meanSpeed="6.37" meanSpeedRelative="0.46" duration="1"/>
    <step time="30.00" loaded="191" inserted="40" running="19" waiting="1" ended="21" arrived="21" collisions="0" teleports="0" halting="1" stopped="0" meanWaitingTime="0.33" meanTravelTime="13.43" meanSpeed="6.74" meanSpeedRelative="0.49" duration="1"/>
    <step time="31.00" loaded="191" inserted="40" running="19" waiting="1" ended="21" arrived="21" collisions="0" teleports="0" halting="0" stopped="0" meanWaitingTime="0.33" meanTravelTime="13.43" meanSpeed="7.34" meanSpeedRelative="0.53" duration="1"/>
    <step time="32.00" loaded="191" inserted="40" running="19" waiting="2" ended="21" arrived="21" collisions="0" teleports="0" halting="0" stopped="0" meanWaitingTime="0.33" meanTravelTime="13.43" meanSpeed="8.21" meanSpeedRelative="0.59" duration="0"/>
    <step time="33.00" loaded="191" inserted="41" running="19" waiting="2" ended="22" arrived="22" collisions="0" teleports="0" halting="1" stopped="0" meanWaitingTime="0.32" meanTravelTime="13.36" meanSpeed="8.74" meanSpeedRelative="0.63" duration="0"/>
    <step time="34.00" loaded="191" inserted="42" running="17" waiting="1" ended="25" arrived="25" collisions="0" teleports="0" halting="1" stopped="0" meanWaitingTime="0.52" meanTravelTime="13.44" meanSpeed="8.63" meanSpeedRelative="0.62" duration="1"/>
    <step time="35.00" loaded="191" inserted="44" running="16" waiting="1" ended="28" arrived="28" collisions="0" teleports="0" halting="2" stopped="0" meanWaitingTime="0.57" meanTravelTime="13.14" meanSpeed="7.71" meanSpeedRelative="0.56" duration="1"/>
    <step time="36.00" loaded="191" inserted="44" running="15" waiting="2" ended="29" arrived="29" collisions="0" teleports="0" halting="0" stopped="0" meanWaitingTime="0.57" meanTravelTime="13.34" meanSpeed="7.85" meanSpeedRelative="0.56" duration="0"/>
    <step time="37.00" loaded="191" inserted="47" running="17" waiting="1" ended="30" arrived="30" collisions="0" teleports="0" halting="3" stopped="0" meanWaitingTime="0.60" meanTravelTime="13.27" meanSpeed="6.52" meanSpeedRelative="0.47" duration="0"/>
    <step time="38.00" loaded="191" inserted="50" running="18" waiting="0" ended="32" arrived="32" collisions="0" teleports="0" halting="3" stopped="0" meanWaitingTime="0.58" meanTravelTime="13.56" meanSpeed="6.06" meanSpeedRelative="0.44" duration="1"/>
    <step time="39.00" loaded="191" inserted="50" running="18" waiting="1" ended="32" arrived="32" collisions="0" teleports="0" halting="0" stopped="0" meanWaitingTime="0.58" meanTravelTime="13.56" meanSpeed="7.30" meanSpeedRelative="0.53" duration="0"/>
    <step time="40.00" loaded="191" inserted="50" running="16" waiting="1" ended="34" arrived="34" collisions="0" teleports="0" halting="0" stopped="0" meanWaitingTime="0.58" meanTravelTime="13.47" meanSpeed="7.89" meanSpeedRelative="0.57" duration="0"/>
    <step time="41.00" loaded="191" inserted="50" running="15" waiting="1" ended="35" arrived="35" collisions="0" teleports="0" halting="0" stopped="0" meanWaitingTime="0.58" meanTravelTime="13.57" meanSpeed="7.85" meanSpeedRelative="0.57" duration="0"/>
    <step time="42.00" loaded="191" inserted="50" running="13" waiting="1" ended="37" arrived="37" collisions="0" teleports="0" halting="0" stopped="0" meanWaitingTime="0.58" meanTravelTime="13.76" meanSpeed="7.73" meanSpeedRelative="0.56" duration="0"/>
    <step time="43.00" loaded="191" inserted="51" running="14" waiting="2" ended="37" arrived="37" collisions="0" teleports="0" halting="1" stopped="0" meanWaitingTime="0.57" meanTravelTime="13.76" meanSpeed="7.87" meanSpeedRelative="0.57" duration="1"/>
    <step time="44.00" loaded="191" inserted="54" running="15" waiting="1" ended="39" arrived="39" collisions="0" teleports="0" halting="3" stopped="0" meanWaitingTime="0.63" meanTravelTime="13.90" meanSpeed="6.62" meanSpeedRelative="0.48" duration="1"/>
    <step time="45.00" loaded="191" inserted="54" running="15" waiting="4" ended="39" arrived="39" collisions="0" teleports="0" halting="0" stopped="0" meanWaitingTime="0.63" meanTravelTime="13.90" meanSpeed="7.74" meanSpeedRelative="0.56" duration="0"/>
    <step time="46.00" loaded="191" inserted="56" running="16" waiting="2" ended="40" arrived="40" collisions="0" teleports="0" halting="2" stopped="0" meanWaitingTime="0.68" meanTravelTime="14.03" meanSpeed="7.31" meanSpeedRelative="0.53" duration="0"/>
    <step time="47.00" loaded="191" inserted="57" running="16" waiting="1" ended="41" arrived="41" collisions="0" teleports="0" halting="1" stopped="0" meanWaitingTime="0.70" meanTravelTime="14.10" meanSpeed="7.90" meanSpeedRelative="0.57" duration="1"/>
    <step time="48.00" loaded="191" inserted="58" running="17" waiting="1" ended="41" arrived="41" collisions="0" teleports="0" halting="1" stopped="0" meanWaitingTime="0.74" meanTravelTime="14.10" meanSpeed="8.24" meanSpeedRelative="0.59" duration="1"/>
    <step time="49.00" loaded="191" inserted="60" running="19" waiting="1" ended="41" arrived="41" collisions="0" teleports="0" halting="2" stopped="0" meanWaitingTime="0.72" meanTravelTime="14.10" meanSpeed="7.51" meanSpeedRelative="0.54" duration="0"/>
    <step time="50.00" loaded="191" inserted="61" running="19" waiting="1" ended="42" arrived="42" collisions="0" teleports="0" halting="1" stopped="0" meanWaitingTime="0.70" meanTravelTime="14.05" meanSpeed="7.41" meanSpeedRelative="0.53" duration="0"/>
    <step time="51.00" loaded="191" inserted="61" running="19" waiting="1" ended="42" arrived="42" collisions="0" teleports="0" halting="0" stopped="0" meanWaitingTime="0.70" meanTravelTime="14.05" meanSpeed="7.96" meanSpeedRelative="0.57" duration="0"/>
    <step time="52.00" loaded="191" inserted="61" running="18" waiting="1" ended="43" arrived="43" collisions="0" teleports="0" halting="0" stopped="0" meanWaitingTime="0.70" meanTravelTime="14.12" meanSpeed="8.17" meanSpeedRelative="0.59" duration="0"/>
    <step time="53.00" loaded="191" inserted="61" running="17" waiting="1" ended="44" arrived="44" collisions="0" teleports="0" halting="0" stopped="0" meanWaitingTime="0.70" meanTravelTime="14.00" meanSpeed="8.86" meanSpeedRelative="0.64" duration="0"/>
    <step time="54.00" loaded="191" inserted="62" running="15" waiting="2" ended="47" arrived="47" collisions="0" teleports="0" halting="1" stopped="0" meanWaitingTime="0.69" meanTravelTime="14.09" meanSpeed="8.11" meanSpeedRelative="0.58" duration="0"/>
    <step time="55.00" loaded="191" inserted="67" running="19" waiting="1" ended="48" arrived="48" collisions="0" teleports="0" halting="5" stopped="0" meanWaitingTime="0.66" meanTravelTime="14.15" meanSpeed="5.93" meanSpeedRelative="0.43" duration="1"/>
    <step time="56.00" loaded="191" inserted="69" running="19" waiting="0" ended="50" arrived="50" collisions="0" teleports="0" halting="3" stopped="0" meanWaitingTime="0.75" meanTravelTime="14.14" meanSpeed="5.35" meanSpeedRelative="0.39" duration="0"/>
    <step time="57.00" loaded="191" inserted="70" running="19" waiting="1" ended="51" arrived="51" collisions="0" teleports="0" halting="1" stopped="0" meanWaitingTime="0.74" meanTravelTime="14.31" meanSpeed="5.85" meanSpeedRelative="0.42" duration="0"/>
    <step time="58.00" loaded="191" inserted="71" running="20" waiting="2" ended="51" arrived="51" collisions="0" teleports="0" halting="1" stopped="0" meanWaitingTime="0.75" meanTravelTime="14.31" meanSpeed="7.15" meanSpeedRelative="0.51" duration="1"/>
    <step time="59.00" loaded="191" inserted="73" running="20" waiting="1" ended="53" arrived="53" collisions="0" teleports="0" halting="2" stopped="0" meanWaitingTime="0.74" meanTravelTime="14.47" meanSpeed="7.28" meanSpeedRelative="0.52" duration="1"/>
    <step time="60.00" loaded="191" inserted="74" running="19" waiting="0" ended="55" arrived="55" collisions="0" teleports="0" halting="1" stopped="0" meanWaitingTime="0.76" meanTravelTime="14.56" meanSpeed="7.26" meanSpeedRelative="0.52" duration="0"/>
    <step time="61.00" loaded="191" inserted="74" running="18" waiting="1" ended="56" arrived="56" collisions="0" teleports="0" halting="0" stopped="0" meanWaitingTime="0.76" meanTravelTime="14.61" meanSpeed="6.97" meanSpeedRelative="0.50" duration="1"/>
    <step time="62.00" loaded="191" inserted="76" running="19" waiting="0" ended="57" arrived="57" collisions="0" teleports="0" halting="2" stopped="0" meanWaitingTime="0.75" meanTravelTime="14.63" meanSpeed="6.15" meanSpeedRelative="0.44" duration="1"/>
    <step time="63.00" loaded="191" inserted="77" running="20" waiting="1" ended="57" arrived="57" collisions="0" teleports="0" halting="1" stopped="0" meanWaitingTime="0.74" meanTravelTime="14.63" meanSpeed="6.29" meanSpeedRelative="0.45" duration="0"/>
    <step time="64.00" loaded="191" inserted="78" running="21" waiting="1" ended="57" arrived="57" collisions="0" teleports="0" halting="1" stopped="0" meanWaitingTime="0.73" meanTravelTime="14.63" meanSpeed="7.01" meanSpeedRelative="0.50" duration="0"/>
    <step time="65.00" loaded="191" inserted="79" running="21" waiting="1" ended="58" arrived="58" collisions="0" teleports="0" halting="1" stopped="0" meanWaitingTime="0.75" meanTravelTime="14.67" meanSpeed="7.11" meanSpeedRelative="0.51" duration="1"/>
    <step time="66.00" loaded="191" inserted="81" running="20" waiting="1" ended="61" arrived="61" collisions="0" teleports="0" halting="2" stopped="0" meanWaitingTime="0.74" meanTravelTime="14.72" meanSpeed="6.14" meanSpeedRelative="0.44" duration="0"/>
    <step time="67.00" loaded="191" inserted="82" running="21" waiting="1" ended="61" arrived="61" collisions="0" teleports="0" halting="1" stopped="0" meanWaitingTime="0.73" meanTravelTime="14.72" meanSpeed="6.89" meanSpeedRelative="0.50" duration="0"/>
    <step time="68.00" loaded="191" inserted="82" running="18" waiting="1" ended="64" arrived="64" collisions="0" teleports="0" halting="0" stopped="0" meanWaitingTime="0.73" meanTravelTime="14.72" meanSpeed="7.30" meanSpeedRelative="0.53" duration="1"/>
    <step time="69.00" loaded="191" inserted="83" running="18" waiting="1" ended="65" arrived="65" collisions="0" teleports="0" halting="1" stopped="0" meanWaitingTime="0.76" meanTravelTime="14.71" meanSpeed="8.25" meanSpeedRelative="0.59" duration="0"/>
    <step time="70.00" loaded="191" inserted="85" running="20" waiting="1" ended="65" arrived="65" collisions="0" teleports="0" halting="2" stopped="0" meanWaitingTime="0.74" meanTravelTime="14.71" meanSpeed="8.13" meanSpeedRelative="0.59" duration="0"/>
    <step time="71.00" loaded="191" inserted="86" running="21" waiting="1" ended="65" arrived="65" collisions="0" teleports="0" halting="1" stopped="0" meanWaitingTime="0.73" meanTravelTime="14.71" meanSpeed="8.62" meanSpeedRelative="0.62" duration="0"/>
    <step time="72.00" loaded="191" inserted="87" running="20" waiting="0" ended="67" arrived="67" collisions="0" teleports="0" halting="1" stopped="0" meanWaitingTime="0.76" meanTravelTime="14.72" meanSpeed="7.15" meanSpeedRelative="0.51" duration="1"/>
    <step time="73.00" loaded="191" inserted="87" running="19" waiting="0" ended="68" arrived="68" collisions="0" teleports="0" halting="0" stopped="0" meanWaitingTime="0.76" meanTravelTime="14.75" meanSpeed="6.94" meanSpeedRelative="0.50" duration="0"/>
    <step time="74.00" loaded="191" inserted="89" running="21" waiting="1" ended="68" arrived="68" collisions="0" teleports="0" halting="2" stopped="0" meanWaitingTime="0.74" meanTravelTime="14.75" meanSpeed="6.95" meanSpeedRelative="0.50" duration="0"/>
    <step time="75.00" loaded="191" inserted="90" running="21" waiting="1" ended="69" arrived="69" collisions="0" teleports="0" halting="1" stopped="0" meanWaitingTime="0.73" meanTravelTime="14.81" meanSpeed="7.74" meanSpeedRelative="0.56" duration="1"/>
    <step time="76.00" loaded="191" inserted="91" running="21" waiting="2" ended="70" arrived="70" collisions="0" teleports="0" halting="1" stopped="0" meanWaitingTime="0.73" meanTravelTime="14.77" meanSpeed="7.61" meanSpeedRelative="0.55" duration="1"/>
    <step time="77.00" loaded="191" inserted="94" running="22" waiting="0" ended="72" arrived="72" collisions="0" teleports="0" halting="3" stopped="0" meanWaitingTime="0.74" meanTravelTime="14.86" meanSpeed="6.79" meanSpeedRelative="0.49" duration="0"/>
    <step time="78.00" loaded="191" inserted="95" running="22" waiting="3" ended="73" arrived="73" collisions="0" teleports="0" halting="1" stopped="0" meanWaitingTime="0.74" meanTravelTime="14.90" meanSpeed="7.01" meanSpeedRelative="0.50" duration="1"/>
    <step time="79.00" loaded="191" inserted="97" running="22" waiting="2" ended="75" arrived="75" collisions="0" teleports="0" halting="2" stopped="0" meanWaitingTime="0.74" meanTravelTime="15.00" meanSpeed="7.02" meanSpeedRelative="0.51" duration="1"/>
    <step time="80.00" loaded="191" inserted="98" running="22" waiting="2" ended="76" arrived="76" collisions="0" teleports="0" halting="2" stopped="0" meanWaitingTime="0.73" meanTravelTime="15.09" meanSpeed="7.16" meanSpeedRelative="0.52" duration="0"/>
    <step time="81.00" loaded="191" inserted="100" running="23" waiting="1" ended="77" arrived="77" collisions="0" teleports="0" halting="3" stopped="0" meanWaitingTime="0.75" meanTravelTime="15.04" meanSpeed="7.03" meanSpeedRelative="0.51" duration="0"/>
    <step time="82.00" loaded="191" inserted="102" running="23" waiting="2" ended="79" arrived="79" collisions="0" teleports="0" halting="2" stopped="0" meanWaitingTime="0.74" meanTravelTime="15.03" meanSpeed="6.66" meanSpeedRelative="0.48" duration="0"/>
    <step time="83.00" loaded="191" inserted="103" running="22" waiting="3" ended="81" arrived="81" collisions="0" teleports="0" halting="1" stopped="0" meanWaitingTime="0.74" meanTravelTime="15.05" meanSpeed="6.34" meanSpeedRelative="0.46" duration="0"/>
    <step time="84.00" loaded="191" inserted="104" running="21" waiting="2" ended="83" arrived="83" collisions="0" teleports="0" halting="1" stopped="0" meanWaitingTime="0.78" meanTravelTime="15.16" meanSpeed="6.76" meanSpeedRelative="0.49" duration="0"/>
    <step time="85.00" loaded="191" inserted="105" running="20" waiting="1" ended="85" arrived="85" collisions="0" teleports="0" halting="1" stopped="0" meanWaitingTime="0.79" meanTravelTime="15.09" meanSpeed="6.87" meanSpeedRelative="0.49" duration="0"/>
    <step time="86.00" loaded="191" inserted="106" running="21" waiting="0" ended="85" arrived="85" collisions="0" teleports="0" halting="1" stopped="0" meanWaitingTime="0.81" meanTravelTime="15.09" meanSpeed="8.03" meanSpeedRelative="0.58" duration="0"/>
    <step time="87.00" loaded="191" inserted="106" running="19" waiting="1" ended="87" arrived="87" collisions="0" teleports="0" halting="0" stopped="0" meanWaitingTime="0.81" meanTravelTime="15.29" meanSpeed="8.77" meanSpeedRelative="0.63" duration="0"/>
    <step time="88.00" loaded="191" inserted="106" running="18" waiting="1" ended="88" arrived="88" collisions="0" teleports="0" halting="0" stopped="0" meanWaitingTime="0.81" meanTravelTime="15.35" meanSpeed="8.87" meanSpeedRelative="0.64" duration="0"/>
    <step time="89.00" loaded="191" inserted="107" running="15" waiting="1" ended="92" arrived="92" collisions="0" teleports="0" halting="1" stopped="0" meanWaitingTime="0.80" meanTravelTime="15.24" meanSpeed="7.50" meanSpeedRelative="0.54" duration="1"/>
    <step time="90.00" loaded="191" inserted="109" running="16" waiting="0" ended="93" arrived="93" collisions="0" teleports="0" halting="2" stopped="0" meanWaitingTime="0.82" meanTravelTime="15.19" meanSpeed="6.87" meanSpeedRelative="0.49" duration="1"/>
    <step time="91.00" loaded="191" inserted="109" running="15" waiting="0" ended="94" arrived="94" collisions="0" teleports="0" halting="0" stopped="0" meanWaitingTime="0.82" meanTravelTime="15.15" meanSpeed="7.75" meanSpeedRelative="0.56" duration="1"/>
    <step time="92.00" loaded="191" inserted="109" running="15" waiting="0" ended="94" arrived="94" collisions="0" teleports="0" halting="0" stopped="0" meanWaitingTime="0.82" meanTravelTime="15.15" meanSpeed="9.01" meanSpeedRelative="0.65" duration="1"/>
    <step time="93.00" loaded="191" inserted="109" running="15" waiting="0" ended="94" arrived="94" collisions="0" teleports="0" halting="0" stopped="0" meanWaitingTime="0.82" meanTravelTime="15.15" meanSpeed="9.51" meanSpeedRelative="0.68" duration="1"/>
    <step time="94.00" loaded="191" inserted="111" running="15" waiting="1" ended="96" arrived="96" collisions="0" teleports="0" halting="2" stopped="0" meanWaitingTime="0.80" meanTravelTime="15.12" meanSpeed="7.44" meanSpeedRelative="0.54" duration="0"/>
    <step time="95.00" loaded="191" inserted="112" running="16" waiting="1" ended="96" arrived="96" collisions="0" teleports="0" halting="1" stopped="0" meanWaitingTime="0.79" meanTravelTime="15.12" meanSpeed="7.12" meanSpeedRelative="0.51" duration="0"/>
    <step time="96.00" loaded="191" inserted="112" running="16" waiting="1" ended="96" arrived="96" collisions="0" teleports="0" halting="0" stopped="0" meanWaitingTime="0.79" meanTravelTime="15.12" meanSpeed="7.49" meanSpeedRelative="0.54" duration="1"/>
    <step time="97.00" loaded="191" inserted="113" running="16" waiting="0" ended="97" arrived="97" collisions="0" teleports="0" halting="1" stopped="0" meanWaitingTime="0.81" meanTravelTime="15.12" meanSpeed="7.16" meanSpeedRelative="0.52" duration="1"/>
    <step time="98.00" loaded="191" inserted="113" running="15" waiting="0" ended="98" arrived="98" collisions="0" teleports="0" halting="0" stopped="0" meanWaitingTime="0.81" meanTravelTime="15.19" meanSpeed="8.05" meanSpeedRelative="0.58" duration="0"/>
    <step time="99.00" loaded="191" inserted="113" running="14" waiting="0" ended="99" arrived="99" collisions="0" teleports="0" halting="0" stopped="0" meanWaitingTime="0.81" meanTravelTime="15.25" meanSpeed="8.45" meanSpeedRelative="0.61" duration="0"/>
    <step time="100.00" loaded="191" inserted="114" running="15" waiting="0" ended="99" arrived="99" collisions="0" teleports="0" halting="1" stopped="0" meanWaitingTime="0.81" meanTravelTime="15.25" meanSpeed="8.10" meanSpeedRelative="0.58" duration="0"/>
    <step time="101.00" loaded="191" inserted="114" running="14" waiting="0" ended="100" arrived="100" collisions="0" teleports="0" halting="0" stopped="0" meanWaitingTime="0.81" meanTravelTime="15.34" meanSpeed="8.13" meanSpeedRelative="0.59" duration="0"/>
    <step time="102.00" loaded="191" inserted="116" running="15" waiting="0" ended="101" arrived="101" collisions="0" teleports="0" halting="2" stopped="0" meanWaitingTime="0.79" meanTravelTime="15.35" meanSpeed="7.56" meanSpeedRelative="0.54" duration="0"/>
    <step time="103.00" loaded="191" inserted="116" running="14" waiting="0" ended="102" arrived="102" collisions="0" teleports="0" halting="0" stopped="0" meanWaitingTime="0.79" meanTravelTime="15.41" meanSpeed="8.21" meanSpeedRelative="0.59" duration="1"/>
    <step time="104.00" loaded="191" inserted="116" running="11" waiting="0" ended="105" arrived="105" collisions="0" teleports="0" halting="0" stopped="0" meanWaitingTime="0.79" meanTravelTime="15.51" meanSpeed="8.13" meanSpeedRelative="0.58" duration="0"/>
    <step time="105.00" loaded="191" inserted="116" running="11" waiting="2" ended="105" arrived="105" collisions="0" teleports="0" halting="0" stopped="0" meanWaitingTime="0.79" meanTravelTime="15.51" meanSpeed="9.04" meanSpeedRelative="0.65" duration="0"/>
    <step time="106.00" loaded="191" inserted="117" running="11" waiting="2" ended="106" arrived="106" collisions="0" teleports="0" halting="1" stopped="0" meanWaitingTime="0.79" meanTravelTime="15.60" meanSpeed="8.90" meanSpeedRelative="0.64" duration="0"/>
    <step time="107.00" loaded="191" inserted="119" running="12" waiting="1" ended="107" arrived="107" collisions="0" teleports="0" halting="2" stopped="0" meanWaitingTime="0.80" meanTravelTime="15.66" meanSpeed="7.64" meanSpeedRelative="0.55" duration="0"/>
    <step time="108.00" loaded="191" inserted="119" running="12" waiting="1" ended="107" arrived="107" collisions="0" teleports="0" halting="0" stopped="0" meanWaitingTime="0.80" meanTravelTime="15.66" meanSpeed="8.13" meanSpeedRelative="0.59" duration="1"/>
    <step time="109.00" loaded="191" inserted="121" running="13" waiting="1" ended="108" arrived="108" collisions="0" teleports="0" halting="2" stopped="0" meanWaitingTime="0.81" meanTravelTime="15.69" meanSpeed="7.25" meanSpeedRelative="0.52" duration="1"/>
    <step time="110.00" loaded="191" inserted="123" running="14" waiting="0" ended="109" arrived="109" collisions="0" teleports="0" halting="2" stopped="0" meanWaitingTime="0.80" meanTravelTime="15.69" meanSpeed="6.38" meanSpeedRelative="0.46" duration="1"/>
    <step time="111.00" loaded="191" inserted="124" running="15" waiting="0" ended="109" arrived="109" collisions="0" teleports="0" halting="1" stopped="0" meanWaitingTime="0.80" meanTravelTime="15.69" meanSpeed="6.66" meanSpeedRelative="0.48" duration="0"/>
    <step time="112.00" loaded="191" inserted="124" running="14" waiting="0" ended="110" arrived="110" collisions="0" teleports="0" halting="0" stopped="0" meanWaitingTime="0.80" meanTravelTime="15.64" meanSpeed="6.45" meanSpeedRelative="0.46" duration="0"/>
    <step time="113.00" loaded="191" inserted="125" running="15" waiting="0" ended="110" arrived="110" collisions="0" teleports="0" halting="1" stopped="0" meanWaitingTime="0.79" meanTravelTime="15.64" meanSpeed="7.07" meanSpeedRelative="0.51" duration="0"/>